<?xml version="1.0" encoding="UTF-8"?>

<!-- generated on 2024-03-25 19:36:02 by Eclipse SUMO GUI Version 1.19.0
<configuration xmlns:xsi="http://www.w3.org/2001/XMLSchema-instance" xsi:noNamespaceSchemaLocation="http://sumo.dlr.de/xsd/sumoConfiguration.xsd">

    <input>
        <net-file value="zig4.net.xml"/>
        <route-files value="zig.rou.xml"/>
    </input>

    <output>
        <fcd-output value="zigzagoutput4.txt"/>
    </output>

</configuration>
-->

<fcd-export xmlns:xsi="http://www.w3.org/2001/XMLSchema-instance" xsi:noNamespaceSchemaLocation="http://sumo.dlr.de/xsd/fcd_file.xsd">
    <timestep time="0.00">
        <vehicle id="f_0.0" x="256.75" y="128.68" angle="217.91" type="DEFAULT_VEHTYPE" speed="0.00" pos="5.10" lane="-E4_0" slope="0.00"/>
        <vehicle id="f_1.0" x="-42.26" y="10.52" angle="35.58" type="DEFAULT_VEHTYPE" speed="0.00" pos="5.10" lane="E2_0" slope="0.00"/>
        <vehicle id="f_2.0" x="251.72" y="145.38" angle="232.18" type="DEFAULT_VEHTYPE" speed="0.00" pos="5.10" lane="-E7_0" slope="0.00"/>
        <vehicle id="f_3.0" x="-45.40" y="81.12" angle="58.50" type="DEFAULT_VEHTYPE" speed="0.00" pos="5.10" lane="E5_0" slope="0.00"/>
    </timestep>
    <timestep time="1.00">
        <vehicle id="f_0.0" x="255.53" y="127.11" angle="217.91" type="DEFAULT_VEHTYPE" speed="1.99" pos="7.09" lane="-E4_0" slope="0.00"/>
        <vehicle id="f_1.0" x="-41.09" y="12.16" angle="35.58" type="DEFAULT_VEHTYPE" speed="2.01" pos="7.11" lane="E2_0" slope="0.00"/>
        <vehicle id="f_2.0" x="250.37" y="144.33" angle="232.18" type="DEFAULT_VEHTYPE" speed="1.71" pos="6.81" lane="-E7_0" slope="0.00"/>
        <vehicle id="f_3.0" x="-44.23" y="81.84" angle="58.50" type="DEFAULT_VEHTYPE" speed="1.38" pos="6.48" lane="E5_0" slope="0.00"/>
    </timestep>
    <timestep time="2.00">
        <vehicle id="f_0.0" x="253.39" y="124.36" angle="217.91" type="DEFAULT_VEHTYPE" speed="3.48" pos="10.57" lane="-E4_0" slope="0.00"/>
        <vehicle id="f_1.0" x="-38.86" y="15.28" angle="35.58" type="DEFAULT_VEHTYPE" speed="3.84" pos="10.95" lane="E2_0" slope="0.00"/>
        <vehicle id="f_2.0" x="247.28" y="141.94" angle="232.18" type="DEFAULT_VEHTYPE" speed="3.91" pos="10.72" lane="-E7_0" slope="0.00"/>
        <vehicle id="f_3.0" x="-40.90" y="83.88" angle="58.50" type="DEFAULT_VEHTYPE" speed="3.90" pos="10.37" lane="E5_0" slope="0.00"/>
    </timestep>
    <timestep time="3.00">
        <vehicle id="f_0.0" x="250.01" y="120.03" angle="217.91" type="DEFAULT_VEHTYPE" speed="5.49" pos="16.06" lane="-E4_0" slope="0.00"/>
        <vehicle id="f_0.1" x="256.75" y="128.68" angle="217.91" type="DEFAULT_VEHTYPE" speed="0.00" pos="5.10" lane="-E4_0" slope="0.00"/>
        <vehicle id="f_1.0" x="-35.73" y="19.65" angle="35.58" type="DEFAULT_VEHTYPE" speed="5.37" pos="16.32" lane="E2_0" slope="0.00"/>
        <vehicle id="f_1.1" x="-42.26" y="10.52" angle="35.58" type="DEFAULT_VEHTYPE" speed="0.00" pos="5.10" lane="E2_0" slope="0.00"/>
        <vehicle id="f_2.0" x="243.05" y="138.65" angle="232.18" type="DEFAULT_VEHTYPE" speed="5.36" pos="16.08" lane="-E7_0" slope="0.00"/>
        <vehicle id="f_2.1" x="251.72" y="145.38" angle="232.18" type="DEFAULT_VEHTYPE" speed="0.00" pos="5.10" lane="-E7_0" slope="0.00"/>
        <vehicle id="f_3.0" x="-35.58" y="87.14" angle="58.50" type="DEFAULT_VEHTYPE" speed="6.25" pos="16.62" lane="E5_0" slope="0.00"/>
        <vehicle id="f_3.1" x="-45.40" y="81.12" angle="58.50" type="DEFAULT_VEHTYPE" speed="0.00" pos="5.10" lane="E5_0" slope="0.00"/>
    </timestep>
    <timestep time="4.00">
        <vehicle id="f_0.0" x="245.73" y="114.53" angle="217.91" type="DEFAULT_VEHTYPE" speed="6.97" pos="23.03" lane="-E4_0" slope="0.00"/>
        <vehicle id="f_0.1" x="255.89" y="127.57" angle="217.91" type="DEFAULT_VEHTYPE" speed="1.40" pos="6.50" lane="-E4_0" slope="0.00"/>
        <vehicle id="f_1.0" x="-31.20" y="25.99" angle="35.58" type="DEFAULT_VEHTYPE" speed="7.80" pos="24.12" lane="E2_0" slope="0.00"/>
        <vehicle id="f_1.1" x="-41.42" y="11.69" angle="35.58" type="DEFAULT_VEHTYPE" speed="1.44" pos="6.54" lane="E2_0" slope="0.00"/>
        <vehicle id="f_2.0" x="237.70" y="134.49" angle="232.18" type="DEFAULT_VEHTYPE" speed="6.78" pos="22.86" lane="-E7_0" slope="0.00"/>
        <vehicle id="f_2.1" x="249.69" y="143.81" angle="232.18" type="DEFAULT_VEHTYPE" speed="2.57" pos="7.67" lane="-E7_0" slope="0.00"/>
        <vehicle id="f_3.0" x="-28.37" y="91.56" angle="58.50" type="DEFAULT_VEHTYPE" speed="8.46" pos="25.08" lane="E5_0" slope="0.00"/>
        <vehicle id="f_3.1" x="-44.24" y="81.84" angle="58.50" type="DEFAULT_VEHTYPE" speed="1.37" pos="6.47" lane="E5_0" slope="0.00"/>
    </timestep>
    <timestep time="5.00">
        <vehicle id="f_0.0" x="240.30" y="107.56" angle="217.91" type="DEFAULT_VEHTYPE" speed="8.83" pos="31.86" lane="-E4_0" slope="0.00"/>
        <vehicle id="f_0.1" x="253.64" y="124.68" angle="217.91" type="DEFAULT_VEHTYPE" speed="3.66" pos="10.16" lane="-E4_0" slope="0.00"/>
        <vehicle id="f_1.0" x="-25.64" y="33.76" angle="35.58" type="DEFAULT_VEHTYPE" speed="9.56" pos="33.68" lane="E2_0" slope="0.00"/>
        <vehicle id="f_1.1" x="-39.75" y="14.03" angle="35.58" type="DEFAULT_VEHTYPE" speed="2.87" pos="9.42" lane="E2_0" slope="0.00"/>
        <vehicle id="f_2.0" x="230.35" y="128.79" angle="232.18" type="DEFAULT_VEHTYPE" speed="9.30" pos="32.15" lane="-E7_0" slope="0.00"/>
        <vehicle id="f_2.1" x="246.52" y="141.35" angle="232.18" type="DEFAULT_VEHTYPE" speed="4.01" pos="11.68" lane="-E7_0" slope="0.00"/>
        <vehicle id="f_3.0" x="-19.17" y="97.20" angle="58.50" type="DEFAULT_VEHTYPE" speed="10.79" pos="35.87" lane="E5_0" slope="0.00"/>
        <vehicle id="f_3.1" x="-41.62" y="83.44" angle="58.50" type="DEFAULT_VEHTYPE" speed="3.07" pos="9.54" lane="E5_0" slope="0.00"/>
    </timestep>
    <timestep time="6.00">
        <vehicle id="f_0.0" x="233.48" y="98.80" angle="217.91" type="DEFAULT_VEHTYPE" speed="11.11" pos="42.97" lane="-E4_0" slope="0.00"/>
        <vehicle id="f_0.1" x="250.05" y="120.08" angle="217.91" type="DEFAULT_VEHTYPE" speed="5.84" pos="15.99" lane="-E4_0" slope="0.00"/>
        <vehicle id="f_0.2" x="256.75" y="128.68" angle="217.91" type="DEFAULT_VEHTYPE" speed="0.00" pos="5.10" lane="-E4_0" slope="0.00"/>
        <vehicle id="f_1.0" x="-18.96" y="43.10" angle="35.58" type="DEFAULT_VEHTYPE" speed="11.48" pos="45.16" lane="E2_0" slope="0.00"/>
        <vehicle id="f_1.1" x="-36.83" y="18.12" angle="35.58" type="DEFAULT_VEHTYPE" speed="5.03" pos="14.45" lane="E2_0" slope="0.00"/>
        <vehicle id="f_1.2" x="-42.26" y="10.52" angle="35.58" type="DEFAULT_VEHTYPE" speed="0.00" pos="5.10" lane="E2_0" slope="0.00"/>
        <vehicle id="f_2.0" x="221.70" y="122.08" angle="232.18" type="DEFAULT_VEHTYPE" speed="10.95" pos="43.11" lane="-E7_0" slope="0.00"/>
        <vehicle id="f_2.1" x="241.62" y="137.54" angle="232.18" type="DEFAULT_VEHTYPE" speed="6.21" pos="17.89" lane="-E7_0" slope="0.00"/>
        <vehicle id="f_2.2" x="251.72" y="145.38" angle="232.18" type="DEFAULT_VEHTYPE" speed="0.00" pos="5.10" lane="-E7_0" slope="0.00"/>
        <vehicle id="f_3.0" x="-8.26" y="103.88" angle="58.50" type="DEFAULT_VEHTYPE" speed="12.79" pos="48.66" lane="E5_0" slope="0.00"/>
        <vehicle id="f_3.1" x="-37.51" y="85.96" angle="58.50" type="DEFAULT_VEHTYPE" speed="4.82" pos="14.35" lane="E5_0" slope="0.00"/>
        <vehicle id="f_3.2" x="-45.40" y="81.12" angle="58.50" type="DEFAULT_VEHTYPE" speed="0.00" pos="5.10" lane="E5_0" slope="0.00"/>
    </timestep>
    <timestep time="7.00">
        <vehicle id="f_0.0" x="225.16" y="88.12" angle="217.91" type="DEFAULT_VEHTYPE" speed="13.54" pos="56.51" lane="-E4_0" slope="0.00"/>
        <vehicle id="f_0.1" x="245.45" y="114.17" angle="217.91" type="DEFAULT_VEHTYPE" speed="7.49" pos="23.49" lane="-E4_0" slope="0.00"/>
        <vehicle id="f_0.2" x="255.29" y="126.81" angle="217.91" type="DEFAULT_VEHTYPE" speed="2.37" pos="7.47" lane="-E4_0" slope="0.00"/>
        <vehicle id="f_1.0" x="-12.00" y="52.83" angle="35.58" type="DEFAULT_VEHTYPE" speed="11.96" pos="57.12" lane="E2_0" slope="0.00"/>
        <vehicle id="f_1.1" x="-33.05" y="23.40" angle="35.58" type="DEFAULT_VEHTYPE" speed="6.50" pos="20.95" lane="E2_0" slope="0.00"/>
        <vehicle id="f_1.2" x="-41.05" y="12.22" angle="35.58" type="DEFAULT_VEHTYPE" speed="2.09" pos="7.19" lane="E2_0" slope="0.00"/>
        <vehicle id="f_2.0" x="211.67" y="114.29" angle="232.18" type="DEFAULT_VEHTYPE" speed="12.70" pos="55.81" lane="-E7_0" slope="0.00"/>
        <vehicle id="f_2.1" x="235.56" y="132.84" angle="232.18" type="DEFAULT_VEHTYPE" speed="7.67" pos="25.56" lane="-E7_0" slope="0.00"/>
        <vehicle id="f_2.2" x="249.91" y="143.98" angle="232.18" type="DEFAULT_VEHTYPE" speed="2.29" pos="7.39" lane="-E7_0" slope="0.00"/>
        <vehicle id="f_3.0" x="4.51" y="111.71" angle="58.50" type="DEFAULT_VEHTYPE" speed="14.98" pos="63.64" lane="E5_0" slope="0.00"/>
        <vehicle id="f_3.1" x="-31.53" y="89.63" angle="58.50" type="DEFAULT_VEHTYPE" speed="7.02" pos="21.37" lane="E5_0" slope="0.00"/>
        <vehicle id="f_3.2" x="-44.11" y="81.91" angle="58.50" type="DEFAULT_VEHTYPE" speed="1.51" pos="6.61" lane="E5_0" slope="0.00"/>
    </timestep>
    <timestep time="8.00">
        <vehicle id="f_0.0" x="216.86" y="77.46" angle="217.91" type="DEFAULT_VEHTYPE" speed="13.50" pos="70.01" lane="-E4_0" slope="0.00"/>
        <vehicle id="f_0.1" x="239.59" y="106.64" angle="217.91" type="DEFAULT_VEHTYPE" speed="9.54" pos="33.02" lane="-E4_0" slope="0.00"/>
        <vehicle id="f_0.2" x="252.33" y="123.01" angle="217.91" type="DEFAULT_VEHTYPE" speed="4.82" pos="12.29" lane="-E4_0" slope="0.00"/>
        <vehicle id="f_1.0" x="-4.75" y="62.96" angle="35.58" type="DEFAULT_VEHTYPE" speed="12.46" pos="69.59" lane="E2_0" slope="0.00"/>
        <vehicle id="f_1.1" x="-27.91" y="30.58" angle="35.58" type="DEFAULT_VEHTYPE" speed="8.82" pos="29.76" lane="E2_0" slope="0.00"/>
        <vehicle id="f_1.2" x="-39.06" y="14.99" angle="35.58" type="DEFAULT_VEHTYPE" speed="3.42" pos="10.60" lane="E2_0" slope="0.00"/>
        <vehicle id="f_2.0" x="200.68" y="105.76" angle="232.18" type="DEFAULT_VEHTYPE" speed="13.91" pos="69.72" lane="-E7_0" slope="0.00"/>
        <vehicle id="f_2.1" x="227.57" y="126.64" angle="232.18" type="DEFAULT_VEHTYPE" speed="10.11" pos="35.67" lane="-E7_0" slope="0.00"/>
        <vehicle id="f_2.2" x="246.23" y="141.12" angle="232.18" type="DEFAULT_VEHTYPE" speed="4.67" pos="12.06" lane="-E7_0" slope="0.00"/>
        <vehicle id="f_3.0" x="16.24" y="118.90" angle="58.50" type="DEFAULT_VEHTYPE" speed="13.75" pos="77.39" lane="E5_0" slope="0.00"/>
        <vehicle id="f_3.1" x="-23.54" y="94.52" angle="58.50" type="DEFAULT_VEHTYPE" speed="9.37" pos="30.74" lane="E5_0" slope="0.00"/>
        <vehicle id="f_3.2" x="-40.96" y="83.85" angle="58.50" type="DEFAULT_VEHTYPE" speed="3.70" pos="10.31" lane="E5_0" slope="0.00"/>
    </timestep>
    <timestep time="9.00">
        <vehicle id="f_0.0" x="208.60" y="66.85" angle="217.91" type="DEFAULT_VEHTYPE" speed="13.45" pos="83.45" lane="-E4_0" slope="0.00"/>
        <vehicle id="f_0.1" x="232.81" y="97.95" angle="217.91" type="DEFAULT_VEHTYPE" speed="11.02" pos="44.05" lane="-E4_0" slope="0.00"/>
        <vehicle id="f_0.2" x="247.79" y="117.17" angle="217.91" type="DEFAULT_VEHTYPE" speed="7.40" pos="19.68" lane="-E4_0" slope="0.00"/>
        <vehicle id="f_0.3" x="256.75" y="128.68" angle="217.91" type="DEFAULT_VEHTYPE" speed="0.00" pos="5.10" lane="-E4_0" slope="0.00"/>
        <vehicle id="f_1.0" x="2.36" y="72.90" angle="35.58" type="DEFAULT_VEHTYPE" speed="12.21" pos="81.80" lane="E2_0" slope="0.00"/>
        <vehicle id="f_1.1" x="-21.68" y="39.30" angle="35.58" type="DEFAULT_VEHTYPE" speed="10.72" pos="40.49" lane="E2_0" slope="0.00"/>
        <vehicle id="f_1.2" x="-36.15" y="19.07" angle="35.58" type="DEFAULT_VEHTYPE" speed="5.01" pos="15.61" lane="E2_0" slope="0.00"/>
        <vehicle id="f_1.3" x="-42.26" y="10.52" angle="35.58" type="DEFAULT_VEHTYPE" speed="0.00" pos="5.10" lane="E2_0" slope="0.00"/>
        <vehicle id="f_2.0" x="189.75" y="97.27" angle="232.18" type="DEFAULT_VEHTYPE" speed="13.84" pos="83.55" lane="-E7_0" slope="0.00"/>
        <vehicle id="f_2.1" x="218.24" y="119.39" angle="232.18" type="DEFAULT_VEHTYPE" speed="11.82" pos="47.49" lane="-E7_0" slope="0.00"/>
        <vehicle id="f_2.2" x="241.09" y="137.13" angle="232.18" type="DEFAULT_VEHTYPE" speed="6.51" pos="18.56" lane="-E7_0" slope="0.00"/>
        <vehicle id="f_2.3" x="251.72" y="145.38" angle="232.18" type="DEFAULT_VEHTYPE" speed="0.00" pos="5.10" lane="-E7_0" slope="0.00"/>
        <vehicle id="f_3.0" x="24.92" y="124.22" angle="58.50" type="DEFAULT_VEHTYPE" speed="10.19" pos="87.58" lane="E5_0" slope="0.00"/>
        <vehicle id="f_3.1" x="-13.42" y="100.73" angle="58.50" type="DEFAULT_VEHTYPE" speed="11.87" pos="42.61" lane="E5_0" slope="0.00"/>
        <vehicle id="f_3.2" x="-36.67" y="86.48" angle="58.50" type="DEFAULT_VEHTYPE" speed="5.03" pos="15.34" lane="E5_0" slope="0.00"/>
        <vehicle id="f_3.3" x="-45.40" y="81.12" angle="58.50" type="DEFAULT_VEHTYPE" speed="0.00" pos="5.10" lane="E5_0" slope="0.00"/>
    </timestep>
    <timestep time="10.00">
        <vehicle id="f_0.0" x="200.03" y="55.85" angle="217.91" type="DEFAULT_VEHTYPE" speed="13.95" pos="97.40" lane="-E4_0" slope="0.00"/>
        <vehicle id="f_0.1" x="224.46" y="87.22" angle="217.91" type="DEFAULT_VEHTYPE" speed="13.60" pos="57.65" lane="-E4_0" slope="0.00"/>
        <vehicle id="f_0.2" x="242.13" y="109.91" angle="217.91" type="DEFAULT_VEHTYPE" speed="9.21" pos="28.89" lane="-E4_0" slope="0.00"/>
        <vehicle id="f_0.3" x="255.38" y="126.93" angle="217.91" type="DEFAULT_VEHTYPE" speed="2.22" pos="7.32" lane="-E4_0" slope="0.00"/>
        <vehicle id="f_1.0" x="9.29" y="82.60" angle="35.58" type="DEFAULT_VEHTYPE" speed="11.93" pos="93.72" lane="E2_0" slope="0.00"/>
        <vehicle id="f_1.1" x="-15.07" y="48.53" angle="35.58" type="DEFAULT_VEHTYPE" speed="11.35" pos="51.84" lane="E2_0" slope="0.00"/>
        <vehicle id="f_1.2" x="-32.19" y="24.60" angle="35.58" type="DEFAULT_VEHTYPE" speed="6.80" pos="22.41" lane="E2_0" slope="0.00"/>
        <vehicle id="f_1.3" x="-41.20" y="12.01" angle="35.58" type="DEFAULT_VEHTYPE" speed="1.83" pos="6.93" lane="E2_0" slope="0.00"/>
        <vehicle id="f_2.0" x="179.36" y="89.20" angle="232.18" type="DEFAULT_VEHTYPE" speed="13.16" pos="96.72" lane="-E7_0" slope="0.00"/>
        <vehicle id="f_2.1" x="207.86" y="111.33" angle="232.18" type="DEFAULT_VEHTYPE" speed="13.14" pos="60.63" lane="-E7_0" slope="0.00"/>
        <vehicle id="f_2.2" x="234.65" y="132.13" angle="232.18" type="DEFAULT_VEHTYPE" speed="8.15" pos="26.71" lane="-E7_0" slope="0.00"/>
        <vehicle id="f_2.3" x="249.93" y="143.99" angle="232.18" type="DEFAULT_VEHTYPE" speed="2.26" pos="7.36" lane="-E7_0" slope="0.00"/>
        <vehicle id="f_3.0" x="30.44" y="127.60" angle="58.50" type="DEFAULT_VEHTYPE" speed="6.46" pos="94.04" lane="E5_0" slope="0.00"/>
        <vehicle id="f_3.1" x="-3.98" y="106.51" angle="58.50" type="DEFAULT_VEHTYPE" speed="11.07" pos="53.69" lane="E5_0" slope="0.00"/>
        <vehicle id="f_3.2" x="-30.91" y="90.00" angle="58.50" type="DEFAULT_VEHTYPE" speed="6.75" pos="22.09" lane="E5_0" slope="0.00"/>
        <vehicle id="f_3.3" x="-43.66" y="82.19" angle="58.50" type="DEFAULT_VEHTYPE" speed="2.04" pos="7.14" lane="E5_0" slope="0.00"/>
    </timestep>
    <timestep time="11.00">
        <vehicle id="f_0.0" x="191.25" y="44.58" angle="217.91" type="DEFAULT_VEHTYPE" speed="14.29" pos="111.69" lane="-E4_0" slope="0.00"/>
        <vehicle id="f_0.1" x="216.05" y="76.42" angle="217.91" type="DEFAULT_VEHTYPE" speed="13.69" pos="71.33" lane="-E4_0" slope="0.00"/>
        <vehicle id="f_0.2" x="234.95" y="100.69" angle="217.91" type="DEFAULT_VEHTYPE" speed="11.69" pos="40.58" lane="-E4_0" slope="0.00"/>
        <vehicle id="f_0.3" x="252.67" y="123.45" angle="217.91" type="DEFAULT_VEHTYPE" speed="4.41" pos="11.73" lane="-E4_0" slope="0.00"/>
        <vehicle id="f_1.0" x="16.83" y="93.13" angle="35.58" type="DEFAULT_VEHTYPE" speed="12.95" pos="106.67" lane="E2_0" slope="0.00"/>
        <vehicle id="f_1.1" x="-8.81" y="57.29" angle="35.58" type="DEFAULT_VEHTYPE" speed="10.77" pos="62.60" lane="E2_0" slope="0.00"/>
        <vehicle id="f_1.2" x="-27.03" y="31.81" angle="35.58" type="DEFAULT_VEHTYPE" speed="8.87" pos="31.28" lane="E2_0" slope="0.00"/>
        <vehicle id="f_1.3" x="-39.02" y="15.05" angle="35.58" type="DEFAULT_VEHTYPE" speed="3.74" pos="10.67" lane="E2_0" slope="0.00"/>
        <vehicle id="f_2.0" x="172.51" y="83.89" angle="232.18" type="DEFAULT_VEHTYPE" speed="8.66" pos="105.38" lane="-E7_0" slope="0.00"/>
        <vehicle id="f_2.1" x="197.05" y="102.93" angle="232.18" type="DEFAULT_VEHTYPE" speed="13.69" pos="74.32" lane="-E7_0" slope="0.00"/>
        <vehicle id="f_2.2" x="226.69" y="125.95" angle="232.18" type="DEFAULT_VEHTYPE" speed="10.08" pos="36.79" lane="-E7_0" slope="0.00"/>
        <vehicle id="f_2.3" x="246.90" y="141.64" angle="232.18" type="DEFAULT_VEHTYPE" speed="3.84" pos="11.20" lane="-E7_0" slope="0.00"/>
        <vehicle id="f_3.0" x="33.52" y="127.10" angle="84.85" type="DEFAULT_VEHTYPE" speed="3.25" pos="1.79" lane="E6_0" slope="0.00"/>
        <vehicle id="f_3.1" x="5.83" y="112.52" angle="58.50" type="DEFAULT_VEHTYPE" speed="11.51" pos="65.19" lane="E5_0" slope="0.00"/>
        <vehicle id="f_3.2" x="-23.01" y="94.85" angle="58.50" type="DEFAULT_VEHTYPE" speed="9.27" pos="31.36" lane="E5_0" slope="0.00"/>
        <vehicle id="f_3.3" x="-40.54" y="84.10" angle="58.50" type="DEFAULT_VEHTYPE" speed="3.65" pos="10.80" lane="E5_0" slope="0.00"/>
    </timestep>
    <timestep time="12.00">
        <vehicle id="f_0.0" x="182.77" y="33.70" angle="217.91" type="DEFAULT_VEHTYPE" speed="13.79" pos="125.48" lane="-E4_0" slope="0.00"/>
        <vehicle id="f_0.1" x="207.62" y="65.60" angle="217.91" type="DEFAULT_VEHTYPE" speed="13.71" pos="85.05" lane="-E4_0" slope="0.00"/>
        <vehicle id="f_0.2" x="227.69" y="91.36" angle="217.91" type="DEFAULT_VEHTYPE" speed="11.81" pos="52.39" lane="-E4_0" slope="0.00"/>
        <vehicle id="f_0.3" x="248.52" y="118.12" angle="217.91" type="DEFAULT_VEHTYPE" speed="6.76" pos="18.48" lane="-E4_0" slope="0.00"/>
        <vehicle id="f_0.4" x="256.75" y="128.68" angle="217.91" type="DEFAULT_VEHTYPE" speed="0.00" pos="5.10" lane="-E4_0" slope="0.00"/>
        <vehicle id="f_1.0" x="23.66" y="102.68" angle="35.58" type="DEFAULT_VEHTYPE" speed="11.75" pos="118.42" lane="E2_0" slope="0.00"/>
        <vehicle id="f_1.1" x="-2.61" y="65.96" angle="35.58" type="DEFAULT_VEHTYPE" speed="10.66" pos="73.27" lane="E2_0" slope="0.00"/>
        <vehicle id="f_1.2" x="-20.77" y="40.56" angle="35.58" type="DEFAULT_VEHTYPE" speed="10.75" pos="42.04" lane="E2_0" slope="0.00"/>
        <vehicle id="f_1.3" x="-36.04" y="19.22" angle="35.58" type="DEFAULT_VEHTYPE" speed="5.14" pos="15.80" lane="E2_0" slope="0.00"/>
        <vehicle id="f_1.4" x="-42.26" y="10.52" angle="35.58" type="DEFAULT_VEHTYPE" speed="0.00" pos="5.10" lane="E2_0" slope="0.00"/>
        <vehicle id="f_2.0" x="168.63" y="80.88" angle="232.18" type="DEFAULT_VEHTYPE" speed="4.91" pos="110.30" lane="-E7_0" slope="0.00"/>
        <vehicle id="f_2.1" x="186.76" y="94.95" angle="232.18" type="DEFAULT_VEHTYPE" speed="13.02" pos="87.34" lane="-E7_0" slope="0.00"/>
        <vehicle id="f_2.2" x="216.73" y="118.22" angle="232.18" type="DEFAULT_VEHTYPE" speed="12.61" pos="49.40" lane="-E7_0" slope="0.00"/>
        <vehicle id="f_2.3" x="242.30" y="138.07" angle="232.18" type="DEFAULT_VEHTYPE" speed="5.82" pos="17.02" lane="-E7_0" slope="0.00"/>
        <vehicle id="f_2.4" x="251.72" y="145.38" angle="232.18" type="DEFAULT_VEHTYPE" speed="0.00" pos="5.10" lane="-E7_0" slope="0.00"/>
        <vehicle id="f_3.0" x="38.74" y="125.12" angle="110.74" type="DEFAULT_VEHTYPE" speed="5.58" pos="7.36" lane="E6_0" slope="0.00"/>
        <vehicle id="f_3.1" x="15.63" y="118.52" angle="58.50" type="DEFAULT_VEHTYPE" speed="11.48" pos="76.68" lane="E5_0" slope="0.00"/>
        <vehicle id="f_3.2" x="-13.13" y="100.90" angle="58.50" type="DEFAULT_VEHTYPE" speed="11.59" pos="42.95" lane="E5_0" slope="0.00"/>
        <vehicle id="f_3.3" x="-35.60" y="87.13" angle="58.50" type="DEFAULT_VEHTYPE" speed="5.79" pos="16.59" lane="E5_0" slope="0.00"/>
        <vehicle id="f_3.4" x="-45.40" y="81.12" angle="58.50" type="DEFAULT_VEHTYPE" speed="0.00" pos="5.10" lane="E5_0" slope="0.00"/>
    </timestep>
    <timestep time="13.00">
        <vehicle id="f_0.0" x="174.10" y="22.56" angle="217.91" type="DEFAULT_VEHTYPE" speed="14.12" pos="139.60" lane="-E4_0" slope="0.00"/>
        <vehicle id="f_0.1" x="199.36" y="54.99" angle="217.91" type="DEFAULT_VEHTYPE" speed="13.44" pos="98.49" lane="-E4_0" slope="0.00"/>
        <vehicle id="f_0.2" x="219.95" y="81.43" angle="217.91" type="DEFAULT_VEHTYPE" speed="12.59" pos="64.98" lane="-E4_0" slope="0.00"/>
        <vehicle id="f_0.3" x="243.05" y="111.09" angle="217.91" type="DEFAULT_VEHTYPE" speed="8.90" pos="27.39" lane="-E4_0" slope="0.00"/>
        <vehicle id="f_0.4" x="255.31" y="126.83" angle="217.91" type="DEFAULT_VEHTYPE" speed="2.34" pos="7.44" lane="-E4_0" slope="0.00"/>
        <vehicle id="f_1.0" x="28.35" y="109.23" angle="35.58" type="DEFAULT_VEHTYPE" speed="8.06" pos="126.48" lane="E2_0" slope="0.00"/>
        <vehicle id="f_1.1" x="3.43" y="74.40" angle="35.58" type="DEFAULT_VEHTYPE" speed="10.37" pos="83.64" lane="E2_0" slope="0.00"/>
        <vehicle id="f_1.2" x="-14.35" y="49.55" angle="35.58" type="DEFAULT_VEHTYPE" speed="11.05" pos="53.09" lane="E2_0" slope="0.00"/>
        <vehicle id="f_1.3" x="-32.13" y="24.69" angle="35.58" type="DEFAULT_VEHTYPE" speed="6.72" pos="22.53" lane="E2_0" slope="0.00"/>
        <vehicle id="f_1.4" x="-40.93" y="12.38" angle="35.58" type="DEFAULT_VEHTYPE" speed="2.29" pos="7.39" lane="E2_0" slope="0.00"/>
        <vehicle id="f_2.0" x="165.65" y="80.48" angle="251.61" type="DEFAULT_VEHTYPE" speed="3.29" pos="0.88" lane="-E6_0" slope="0.00"/>
        <vehicle id="f_2.1" x="179.84" y="89.58" angle="232.18" type="DEFAULT_VEHTYPE" speed="8.76" pos="96.10" lane="-E7_0" slope="0.00"/>
        <vehicle id="f_2.2" x="205.56" y="109.55" angle="232.18" type="DEFAULT_VEHTYPE" speed="14.14" pos="63.54" lane="-E7_0" slope="0.00"/>
        <vehicle id="f_2.3" x="236.53" y="133.59" angle="232.18" type="DEFAULT_VEHTYPE" speed="7.30" pos="24.33" lane="-E7_0" slope="0.00"/>
        <vehicle id="f_2.4" x="250.07" y="144.10" angle="232.18" type="DEFAULT_VEHTYPE" speed="2.10" pos="7.20" lane="-E7_0" slope="0.00"/>
        <vehicle id="f_3.0" x="46.25" y="122.28" angle="110.74" type="DEFAULT_VEHTYPE" speed="8.04" pos="15.40" lane="E6_0" slope="0.00"/>
        <vehicle id="f_3.1" x="24.90" y="124.20" angle="58.50" type="DEFAULT_VEHTYPE" speed="10.87" pos="87.55" lane="E5_0" slope="0.00"/>
        <vehicle id="f_3.2" x="-1.38" y="108.10" angle="58.50" type="DEFAULT_VEHTYPE" speed="13.78" pos="56.73" lane="E5_0" slope="0.00"/>
        <vehicle id="f_3.3" x="-29.10" y="91.11" angle="58.50" type="DEFAULT_VEHTYPE" speed="7.63" pos="24.22" lane="E5_0" slope="0.00"/>
        <vehicle id="f_3.4" x="-44.01" y="81.98" angle="58.50" type="DEFAULT_VEHTYPE" speed="1.63" pos="6.73" lane="E5_0" slope="0.00"/>
    </timestep>
    <timestep time="14.00">
        <vehicle id="f_0.0" x="167.98" y="14.70" angle="217.91" type="DEFAULT_VEHTYPE" speed="9.95" pos="149.55" lane="-E4_0" slope="0.00"/>
        <vehicle id="f_0.1" x="190.58" y="43.72" angle="217.91" type="DEFAULT_VEHTYPE" speed="14.29" pos="112.78" lane="-E4_0" slope="0.00"/>
        <vehicle id="f_0.2" x="212.56" y="71.94" angle="217.91" type="DEFAULT_VEHTYPE" speed="12.04" pos="77.02" lane="-E4_0" slope="0.00"/>
        <vehicle id="f_0.3" x="236.21" y="102.31" angle="217.91" type="DEFAULT_VEHTYPE" speed="11.13" pos="38.52" lane="-E4_0" slope="0.00"/>
        <vehicle id="f_0.4" x="252.99" y="123.85" angle="217.91" type="DEFAULT_VEHTYPE" speed="3.78" pos="11.22" lane="-E4_0" slope="0.00"/>
        <vehicle id="f_1.0" x="31.05" y="113.01" angle="35.58" type="DEFAULT_VEHTYPE" speed="4.64" pos="131.12" lane="E2_0" slope="0.00"/>
        <vehicle id="f_1.1" x="9.43" y="82.79" angle="35.58" type="DEFAULT_VEHTYPE" speed="10.32" pos="93.96" lane="E2_0" slope="0.00"/>
        <vehicle id="f_1.2" x="-7.69" y="58.85" angle="35.58" type="DEFAULT_VEHTYPE" speed="11.44" pos="64.53" lane="E2_0" slope="0.00"/>
        <vehicle id="f_1.3" x="-27.30" y="31.44" angle="35.58" type="DEFAULT_VEHTYPE" speed="8.30" pos="30.82" lane="E2_0" slope="0.00"/>
        <vehicle id="f_1.4" x="-38.80" y="15.35" angle="35.58" type="DEFAULT_VEHTYPE" speed="3.65" pos="11.05" lane="E2_0" slope="0.00"/>
        <vehicle id="f_2.0" x="161.31" y="82.12" angle="290.74" type="DEFAULT_VEHTYPE" speed="4.64" pos="5.51" lane="-E6_0" slope="0.00"/>
        <vehicle id="f_2.1" x="174.53" y="85.45" angle="232.18" type="DEFAULT_VEHTYPE" speed="6.73" pos="102.83" lane="-E7_0" slope="0.00"/>
        <vehicle id="f_2.2" x="195.29" y="101.57" angle="232.18" type="DEFAULT_VEHTYPE" speed="13.01" pos="76.55" lane="-E7_0" slope="0.00"/>
        <vehicle id="f_2.3" x="228.79" y="127.58" angle="232.18" type="DEFAULT_VEHTYPE" speed="9.80" pos="34.13" lane="-E7_0" slope="0.00"/>
        <vehicle id="f_2.4" x="246.63" y="141.43" angle="232.18" type="DEFAULT_VEHTYPE" speed="4.35" pos="11.55" lane="-E7_0" slope="0.00"/>
        <vehicle id="f_3.0" x="55.38" y="118.82" angle="110.74" type="DEFAULT_VEHTYPE" speed="9.76" pos="25.17" lane="E6_0" slope="0.00"/>
        <vehicle id="f_3.1" x="30.33" y="127.53" angle="58.50" type="DEFAULT_VEHTYPE" speed="6.37" pos="93.92" lane="E5_0" slope="0.00"/>
        <vehicle id="f_3.2" x="10.13" y="115.15" angle="58.50" type="DEFAULT_VEHTYPE" speed="13.49" pos="70.23" lane="E5_0" slope="0.00"/>
        <vehicle id="f_3.3" x="-21.14" y="95.99" angle="58.50" type="DEFAULT_VEHTYPE" speed="9.33" pos="33.55" lane="E5_0" slope="0.00"/>
        <vehicle id="f_3.4" x="-40.72" y="83.99" angle="58.50" type="DEFAULT_VEHTYPE" speed="3.86" pos="10.59" lane="E5_0" slope="0.00"/>
    </timestep>
    <timestep time="15.00">
        <vehicle id="f_0.0" x="164.63" y="10.40" angle="217.91" type="DEFAULT_VEHTYPE" speed="5.45" pos="155.01" lane="-E4_0" slope="0.00"/>
        <vehicle id="f_0.1" x="181.82" y="32.47" angle="217.91" type="DEFAULT_VEHTYPE" speed="14.25" pos="127.03" lane="-E4_0" slope="0.00"/>
        <vehicle id="f_0.2" x="204.85" y="62.04" angle="217.91" type="DEFAULT_VEHTYPE" speed="12.55" pos="89.56" lane="-E4_0" slope="0.00"/>
        <vehicle id="f_0.3" x="228.35" y="92.22" angle="217.91" type="DEFAULT_VEHTYPE" speed="12.79" pos="51.31" lane="-E4_0" slope="0.00"/>
        <vehicle id="f_0.4" x="249.37" y="119.21" angle="217.91" type="DEFAULT_VEHTYPE" speed="5.88" pos="17.10" lane="-E4_0" slope="0.00"/>
        <vehicle id="f_0.5" x="256.75" y="128.68" angle="217.91" type="DEFAULT_VEHTYPE" speed="0.00" pos="5.10" lane="-E4_0" slope="0.00"/>
        <vehicle id="f_1.0" x="33.07" y="114.43" angle="45.53" type="DEFAULT_VEHTYPE" speed="2.66" pos="1.80" lane=":J5_1_0" slope="0.00"/>
        <vehicle id="f_1.1" x="15.42" y="91.15" angle="35.58" type="DEFAULT_VEHTYPE" speed="10.28" pos="104.25" lane="E2_0" slope="0.00"/>
        <vehicle id="f_1.2" x="-1.21" y="67.92" angle="35.58" type="DEFAULT_VEHTYPE" speed="11.14" pos="75.67" lane="E2_0" slope="0.00"/>
        <vehicle id="f_1.3" x="-21.14" y="40.04" angle="35.58" type="DEFAULT_VEHTYPE" speed="10.58" pos="41.40" lane="E2_0" slope="0.00"/>
        <vehicle id="f_1.4" x="-35.64" y="19.78" angle="35.58" type="DEFAULT_VEHTYPE" speed="5.44" pos="16.48" lane="E2_0" slope="0.00"/>
        <vehicle id="f_1.5" x="-42.26" y="10.52" angle="35.58" type="DEFAULT_VEHTYPE" speed="0.00" pos="5.10" lane="E2_0" slope="0.00"/>
        <vehicle id="f_2.0" x="155.05" y="84.49" angle="290.74" type="DEFAULT_VEHTYPE" speed="6.69" pos="12.21" lane="-E6_0" slope="0.00"/>
        <vehicle id="f_2.1" x="169.68" y="81.69" angle="232.18" type="DEFAULT_VEHTYPE" speed="6.14" pos="108.97" lane="-E7_0" slope="0.00"/>
        <vehicle id="f_2.2" x="186.41" y="94.68" angle="232.18" type="DEFAULT_VEHTYPE" speed="11.24" pos="87.79" lane="-E7_0" slope="0.00"/>
        <vehicle id="f_2.3" x="219.77" y="120.58" angle="232.18" type="DEFAULT_VEHTYPE" speed="11.42" pos="45.55" lane="-E7_0" slope="0.00"/>
        <vehicle id="f_2.4" x="241.83" y="137.70" angle="232.18" type="DEFAULT_VEHTYPE" speed="6.08" pos="17.63" lane="-E7_0" slope="0.00"/>
        <vehicle id="f_2.5" x="251.72" y="145.38" angle="232.18" type="DEFAULT_VEHTYPE" speed="0.00" pos="5.10" lane="-E7_0" slope="0.00"/>
        <vehicle id="f_3.0" x="66.19" y="114.72" angle="110.74" type="DEFAULT_VEHTYPE" speed="11.56" pos="36.72" lane="E6_0" slope="0.00"/>
        <vehicle id="f_3.1" x="33.25" y="127.20" angle="81.68" type="DEFAULT_VEHTYPE" speed="3.09" pos="1.50" lane="E6_0" slope="0.00"/>
        <vehicle id="f_3.2" x="18.46" y="120.26" angle="58.50" type="DEFAULT_VEHTYPE" speed="9.77" pos="80.00" lane="E5_0" slope="0.00"/>
        <vehicle id="f_3.3" x="-11.92" y="101.64" angle="58.50" type="DEFAULT_VEHTYPE" speed="10.82" pos="44.37" lane="E5_0" slope="0.00"/>
        <vehicle id="f_3.4" x="-36.18" y="86.78" angle="58.50" type="DEFAULT_VEHTYPE" speed="5.33" pos="15.92" lane="E5_0" slope="0.00"/>
        <vehicle id="f_3.5" x="-45.40" y="81.12" angle="58.50" type="DEFAULT_VEHTYPE" speed="0.00" pos="5.10" lane="E5_0" slope="0.00"/>