<?xml version="1.0" encoding="UTF-8"?>

<!-- generated on 2024-03-25 19:31:47 by Eclipse SUMO GUI Version 1.19.0
<configuration xmlns:xsi="http://www.w3.org/2001/XMLSchema-instance" xsi:noNamespaceSchemaLocation="http://sumo.dlr.de/xsd/sumoConfiguration.xsd">

    <input>
        <net-file value="zig.net.xml"/>
        <route-files value="zig.rou.xml"/>
    </input>

    <output>
        <fcd-output value="zigzagoutput2.txt"/>
    </output>

</configuration>
-->

<fcd-export xmlns:xsi="http://www.w3.org/2001/XMLSchema-instance" xsi:noNamespaceSchemaLocation="http://sumo.dlr.de/xsd/fcd_file.xsd">
    <timestep time="0.00">
        <vehicle id="f_0.0" x="256.75" y="128.68" angle="217.91" type="DEFAULT_VEHTYPE" speed="0.00" pos="5.10" lane="-E4_0" slope="0.00"/>
        <vehicle id="f_1.0" x="-42.26" y="10.52" angle="35.58" type="DEFAULT_VEHTYPE" speed="0.00" pos="5.10" lane="E2_0" slope="0.00"/>
    </timestep>
    <timestep time="1.00">
        <vehicle id="f_0.0" x="255.50" y="127.08" angle="217.91" type="DEFAULT_VEHTYPE" speed="2.02" pos="7.12" lane="-E4_0" slope="0.00"/>
        <vehicle id="f_1.0" x="-40.81" y="12.55" angle="35.58" type="DEFAULT_VEHTYPE" speed="2.49" pos="7.59" lane="E2_0" slope="0.00"/>
    </timestep>
    <timestep time="2.00">
        <vehicle id="f_0.0" x="253.14" y="124.04" angle="217.91" type="DEFAULT_VEHTYPE" speed="3.85" pos="10.97" lane="-E4_0" slope="0.00"/>
        <vehicle id="f_1.0" x="-38.28" y="16.09" angle="35.58" type="DEFAULT_VEHTYPE" speed="4.36" pos="11.95" lane="E2_0" slope="0.00"/>
    </timestep>
    <timestep time="3.00">
        <vehicle id="f_0.0" x="249.33" y="119.16" angle="217.91" type="DEFAULT_VEHTYPE" speed="6.19" pos="17.17" lane="-E4_0" slope="0.00"/>
        <vehicle id="f_0.1" x="256.75" y="128.68" angle="217.91" type="DEFAULT_VEHTYPE" speed="0.00" pos="5.10" lane="-E4_0" slope="0.00"/>
        <vehicle id="f_1.0" x="-34.26" y="21.70" angle="35.58" type="DEFAULT_VEHTYPE" speed="6.90" pos="18.85" lane="E2_0" slope="0.00"/>
        <vehicle id="f_1.1" x="-42.26" y="10.52" angle="35.58" type="DEFAULT_VEHTYPE" speed="0.00" pos="5.10" lane="E2_0" slope="0.00"/>
    </timestep>
    <timestep time="4.00">
        <vehicle id="f_0.0" x="243.98" y="112.28" angle="217.91" type="DEFAULT_VEHTYPE" speed="8.71" pos="25.88" lane="-E4_0" slope="0.00"/>
        <vehicle id="f_0.1" x="255.71" y="127.35" angle="217.91" type="DEFAULT_VEHTYPE" speed="1.69" pos="6.79" lane="-E4_0" slope="0.00"/>
        <vehicle id="f_1.0" x="-28.96" y="29.12" angle="35.58" type="DEFAULT_VEHTYPE" speed="9.12" pos="27.97" lane="E2_0" slope="0.00"/>
        <vehicle id="f_1.1" x="-40.85" y="12.50" angle="35.58" type="DEFAULT_VEHTYPE" speed="2.44" pos="7.54" lane="E2_0" slope="0.00"/>
    </timestep>
    <timestep time="5.00">
        <vehicle id="f_0.0" x="237.18" y="103.56" angle="217.91" type="DEFAULT_VEHTYPE" speed="11.06" pos="36.94" lane="-E4_0" slope="0.00"/>
        <vehicle id="f_0.1" x="253.62" y="124.66" angle="217.91" type="DEFAULT_VEHTYPE" speed="3.40" pos="10.19" lane="-E4_0" slope="0.00"/>
        <vehicle id="f_1.0" x="-22.35" y="38.36" angle="35.58" type="DEFAULT_VEHTYPE" speed="11.36" pos="39.33" lane="E2_0" slope="0.00"/>
        <vehicle id="f_1.1" x="-38.48" y="15.80" angle="35.58" type="DEFAULT_VEHTYPE" speed="4.06" pos="11.60" lane="E2_0" slope="0.00"/>
    </timestep>
    <timestep time="6.00">
        <vehicle id="f_0.0" x="229.39" y="93.55" angle="217.91" type="DEFAULT_VEHTYPE" speed="12.68" pos="49.62" lane="-E4_0" slope="0.00"/>
        <vehicle id="f_0.1" x="250.01" y="120.02" angle="217.91" type="DEFAULT_VEHTYPE" speed="5.88" pos="16.07" lane="-E4_0" slope="0.00"/>
        <vehicle id="f_0.2" x="256.75" y="128.68" angle="217.91" type="DEFAULT_VEHTYPE" speed="0.00" pos="5.10" lane="-E4_0" slope="0.00"/>
        <vehicle id="f_1.0" x="-14.79" y="48.92" angle="35.58" type="DEFAULT_VEHTYPE" speed="12.99" pos="52.32" lane="E2_0" slope="0.00"/>
        <vehicle id="f_1.1" x="-34.81" y="20.94" angle="35.58" type="DEFAULT_VEHTYPE" speed="6.31" pos="17.91" lane="E2_0" slope="0.00"/>
        <vehicle id="f_1.2" x="-42.26" y="10.52" angle="35.58" type="DEFAULT_VEHTYPE" speed="0.00" pos="5.10" lane="E2_0" slope="0.00"/>
    </timestep>
    <timestep time="7.00">
        <vehicle id="f_0.0" x="220.96" y="82.72" angle="217.91" type="DEFAULT_VEHTYPE" speed="13.72" pos="63.34" lane="-E4_0" slope="0.00"/>
        <vehicle id="f_0.1" x="244.82" y="113.36" angle="217.91" type="DEFAULT_VEHTYPE" speed="8.45" pos="24.51" lane="-E4_0" slope="0.00"/>
        <vehicle id="f_0.2" x="255.91" y="127.61" angle="217.91" type="DEFAULT_VEHTYPE" speed="1.35" pos="6.45" lane="-E4_0" slope="0.00"/>
        <vehicle id="f_1.0" x="-7.22" y="59.51" angle="35.58" type="DEFAULT_VEHTYPE" speed="13.03" pos="65.34" lane="E2_0" slope="0.00"/>
        <vehicle id="f_1.1" x="-30.28" y="27.28" angle="35.58" type="DEFAULT_VEHTYPE" speed="7.80" pos="25.71" lane="E2_0" slope="0.00"/>
        <vehicle id="f_1.2" x="-41.33" y="11.82" angle="35.58" type="DEFAULT_VEHTYPE" speed="1.60" pos="6.70" lane="E2_0" slope="0.00"/>
    </timestep>
    <timestep time="8.00">
        <vehicle id="f_0.0" x="212.67" y="72.09" angle="217.91" type="DEFAULT_VEHTYPE" speed="13.48" pos="76.82" lane="-E4_0" slope="0.00"/>
        <vehicle id="f_0.1" x="238.65" y="105.44" angle="217.91" type="DEFAULT_VEHTYPE" speed="10.04" pos="34.55" lane="-E4_0" slope="0.00"/>
        <vehicle id="f_0.2" x="253.84" y="124.94" angle="217.91" type="DEFAULT_VEHTYPE" speed="3.38" pos="9.83" lane="-E4_0" slope="0.00"/>
        <vehicle id="f_1.0" x="-0.14" y="69.41" angle="35.58" type="DEFAULT_VEHTYPE" speed="12.17" pos="77.51" lane="E2_0" slope="0.00"/>
        <vehicle id="f_1.1" x="-24.68" y="35.09" angle="35.58" type="DEFAULT_VEHTYPE" speed="9.61" pos="35.32" lane="E2_0" slope="0.00"/>
        <vehicle id="f_1.2" x="-39.46" y="14.44" angle="35.58" type="DEFAULT_VEHTYPE" speed="3.22" pos="9.92" lane="E2_0" slope="0.00"/>
    </timestep>
    <timestep time="9.00">
        <vehicle id="f_0.0" x="204.04" y="61.00" angle="217.91" type="DEFAULT_VEHTYPE" speed="14.06" pos="90.88" lane="-E4_0" slope="0.00"/>
        <vehicle id="f_0.1" x="231.45" y="96.19" angle="217.91" type="DEFAULT_VEHTYPE" speed="11.72" pos="46.27" lane="-E4_0" slope="0.00"/>
        <vehicle id="f_0.2" x="250.36" y="120.48" angle="217.91" type="DEFAULT_VEHTYPE" speed="5.66" pos="15.49" lane="-E4_0" slope="0.00"/>
        <vehicle id="f_0.3" x="256.75" y="128.68" angle="217.91" type="DEFAULT_VEHTYPE" speed="0.00" pos="5.10" lane="-E4_0" slope="0.00"/>
        <vehicle id="f_1.0" x="7.41" y="79.96" angle="35.58" type="DEFAULT_VEHTYPE" speed="12.98" pos="90.49" lane="E2_0" slope="0.00"/>
        <vehicle id="f_1.1" x="-17.78" y="44.75" angle="35.58" type="DEFAULT_VEHTYPE" speed="11.87" pos="47.18" lane="E2_0" slope="0.00"/>
        <vehicle id="f_1.2" x="-36.47" y="18.62" angle="35.58" type="DEFAULT_VEHTYPE" speed="5.14" pos="15.06" lane="E2_0" slope="0.00"/>
        <vehicle id="f_1.3" x="-42.26" y="10.52" angle="35.58" type="DEFAULT_VEHTYPE" speed="0.00" pos="5.10" lane="E2_0" slope="0.00"/>
    </timestep>
    <timestep time="10.00">
        <vehicle id="f_0.0" x="195.45" y="49.97" angle="217.91" type="DEFAULT_VEHTYPE" speed="13.97" pos="104.85" lane="-E4_0" slope="0.00"/>
        <vehicle id="f_0.1" x="223.42" y="85.88" angle="217.91" type="DEFAULT_VEHTYPE" speed="13.07" pos="59.34" lane="-E4_0" slope="0.00"/>
        <vehicle id="f_0.2" x="246.01" y="114.90" angle="217.91" type="DEFAULT_VEHTYPE" speed="7.07" pos="22.56" lane="-E4_0" slope="0.00"/>
        <vehicle id="f_0.3" x="255.22" y="126.71" angle="217.91" type="DEFAULT_VEHTYPE" speed="2.49" pos="7.59" lane="-E4_0" slope="0.00"/>
        <vehicle id="f_1.0" x="14.84" y="90.34" angle="35.58" type="DEFAULT_VEHTYPE" speed="12.76" pos="103.25" lane="E2_0" slope="0.00"/>
        <vehicle id="f_1.1" x="-9.53" y="56.27" angle="35.58" type="DEFAULT_VEHTYPE" speed="14.18" pos="61.36" lane="E2_0" slope="0.00"/>
        <vehicle id="f_1.2" x="-32.45" y="24.24" angle="35.58" type="DEFAULT_VEHTYPE" speed="6.91" pos="21.97" lane="E2_0" slope="0.00"/>
        <vehicle id="f_1.3" x="-41.05" y="12.21" angle="35.58" type="DEFAULT_VEHTYPE" speed="2.09" pos="7.19" lane="E2_0" slope="0.00"/>
    </timestep>
    <timestep time="11.00">
        <vehicle id="f_0.0" x="187.03" y="39.16" angle="217.91" type="DEFAULT_VEHTYPE" speed="13.70" pos="118.56" lane="-E4_0" slope="0.00"/>
        <vehicle id="f_0.1" x="215.53" y="75.75" angle="217.91" type="DEFAULT_VEHTYPE" speed="12.84" pos="72.18" lane="-E4_0" slope="0.00"/>
        <vehicle id="f_0.2" x="240.46" y="107.76" angle="217.91" type="DEFAULT_VEHTYPE" speed="9.04" pos="31.60" lane="-E4_0" slope="0.00"/>
        <vehicle id="f_0.3" x="252.39" y="123.08" angle="217.91" type="DEFAULT_VEHTYPE" speed="4.60" pos="12.19" lane="-E4_0" slope="0.00"/>
        <vehicle id="f_1.0" x="22.03" y="100.40" angle="35.58" type="DEFAULT_VEHTYPE" speed="12.37" pos="115.62" lane="E2_0" slope="0.00"/>
        <vehicle id="f_1.1" x="-0.80" y="68.49" angle="35.58" type="DEFAULT_VEHTYPE" speed="15.02" pos="76.38" lane="E2_0" slope="0.00"/>
        <vehicle id="f_1.2" x="-27.45" y="31.23" angle="35.58" type="DEFAULT_VEHTYPE" speed="8.60" pos="30.57" lane="E2_0" slope="0.00"/>
        <vehicle id="f_1.3" x="-38.36" y="15.97" angle="35.58" type="DEFAULT_VEHTYPE" speed="4.62" pos="11.81" lane="E2_0" slope="0.00"/>
    </timestep>
    <timestep time="12.00">
        <vehicle id="f_0.0" x="178.52" y="28.23" angle="217.91" type="DEFAULT_VEHTYPE" speed="13.85" pos="132.41" lane="-E4_0" slope="0.00"/>
        <vehicle id="f_0.1" x="206.91" y="64.68" angle="217.91" type="DEFAULT_VEHTYPE" speed="14.03" pos="86.21" lane="-E4_0" slope="0.00"/>
        <vehicle id="f_0.2" x="233.80" y="99.22" angle="217.91" type="DEFAULT_VEHTYPE" speed="10.83" pos="42.44" lane="-E4_0" slope="0.00"/>
        <vehicle id="f_0.3" x="248.55" y="118.16" angle="217.91" type="DEFAULT_VEHTYPE" speed="6.24" pos="18.43" lane="-E4_0" slope="0.00"/>
        <vehicle id="f_0.4" x="256.75" y="128.68" angle="217.91" type="DEFAULT_VEHTYPE" speed="0.00" pos="5.10" lane="-E4_0" slope="0.00"/>
        <vehicle id="f_1.0" x="27.42" y="107.94" angle="35.58" type="DEFAULT_VEHTYPE" speed="9.26" pos="124.88" lane="E2_0" slope="0.00"/>
        <vehicle id="f_1.1" x="7.34" y="79.86" angle="35.58" type="DEFAULT_VEHTYPE" speed="13.98" pos="90.36" lane="E2_0" slope="0.00"/>
        <vehicle id="f_1.2" x="-21.07" y="40.14" angle="35.58" type="DEFAULT_VEHTYPE" speed="10.96" pos="41.52" lane="E2_0" slope="0.00"/>
        <vehicle id="f_1.3" x="-34.48" y="21.40" angle="35.58" type="DEFAULT_VEHTYPE" speed="6.67" pos="18.48" lane="E2_0" slope="0.00"/>
        <vehicle id="f_1.4" x="-42.26" y="10.52" angle="35.58" type="DEFAULT_VEHTYPE" speed="0.00" pos="5.10" lane="E2_0" slope="0.00"/>
    </timestep>
    <timestep time="13.00">
        <vehicle id="f_0.0" x="171.05" y="18.64" angle="217.91" type="DEFAULT_VEHTYPE" speed="12.16" pos="144.57" lane="-E4_0" slope="0.00"/>
        <vehicle id="f_0.1" x="198.55" y="53.95" angle="217.91" type="DEFAULT_VEHTYPE" speed="13.60" pos="99.81" lane="-E4_0" slope="0.00"/>
        <vehicle id="f_0.2" x="225.75" y="88.87" angle="217.91" type="DEFAULT_VEHTYPE" speed="13.11" pos="55.55" lane="-E4_0" slope="0.00"/>
        <vehicle id="f_0.3" x="243.19" y="111.27" angle="217.91" type="DEFAULT_VEHTYPE" speed="8.73" pos="27.16" lane="-E4_0" slope="0.00"/>
        <vehicle id="f_0.4" x="255.38" y="126.92" angle="217.91" type="DEFAULT_VEHTYPE" speed="2.22" pos="7.32" lane="-E4_0" slope="0.00"/>
        <vehicle id="f_1.0" x="31.39" y="113.49" angle="35.58" type="DEFAULT_VEHTYPE" speed="6.83" pos="131.71" lane="E2_0" slope="0.00"/>
        <vehicle id="f_1.1" x="15.53" y="91.32" angle="35.58" type="DEFAULT_VEHTYPE" speed="14.09" pos="104.45" lane="E2_0" slope="0.00"/>
        <vehicle id="f_1.2" x="-14.92" y="48.75" angle="35.58" type="DEFAULT_VEHTYPE" speed="10.58" pos="52.10" lane="E2_0" slope="0.00"/>
        <vehicle id="f_1.3" x="-29.54" y="28.30" angle="35.58" type="DEFAULT_VEHTYPE" speed="8.49" pos="26.97" lane="E2_0" slope="0.00"/>
        <vehicle id="f_1.4" x="-41.01" y="12.27" angle="35.58" type="DEFAULT_VEHTYPE" speed="2.16" pos="7.26" lane="E2_0" slope="0.00"/>
    </timestep>
    <timestep time="14.00">
        <vehicle id="f_0.0" x="165.97" y="12.12" angle="217.91" type="DEFAULT_VEHTYPE" speed="8.26" pos="152.83" lane="-E4_0" slope="0.00"/>
        <vehicle id="f_0.1" x="190.25" y="43.29" angle="217.91" type="DEFAULT_VEHTYPE" speed="13.51" pos="113.32" lane="-E4_0" slope="0.00"/>
        <vehicle id="f_0.2" x="217.44" y="78.21" angle="217.91" type="DEFAULT_VEHTYPE" speed="13.52" pos="69.07" lane="-E4_0" slope="0.00"/>
        <vehicle id="f_0.3" x="237.00" y="103.32" angle="217.91" type="DEFAULT_VEHTYPE" speed="10.08" pos="37.24" lane="-E4_0" slope="0.00"/>
        <vehicle id="f_0.4" x="252.86" y="123.69" angle="217.91" type="DEFAULT_VEHTYPE" speed="4.10" pos="11.42" lane="-E4_0" slope="0.00"/>
        <vehicle id="f_1.0" x="34.08" y="113.84" angle="64.50" type="DEFAULT_VEHTYPE" speed="3.25" pos="0.25" lane="E3_0" slope="0.00"/>
        <vehicle id="f_1.1" x="22.37" y="100.87" angle="35.58" type="DEFAULT_VEHTYPE" speed="11.75" pos="116.20" lane="E2_0" slope="0.00"/>
        <vehicle id="f_1.2" x="-8.32" y="57.97" angle="35.58" type="DEFAULT_VEHTYPE" speed="11.34" pos="63.45" lane="E2_0" slope="0.00"/>
        <vehicle id="f_1.3" x="-23.61" y="36.60" angle="35.58" type="DEFAULT_VEHTYPE" speed="10.20" pos="37.17" lane="E2_0" slope="0.00"/>
        <vehicle id="f_1.4" x="-38.48" y="15.80" angle="35.58" type="DEFAULT_VEHTYPE" speed="4.34" pos="11.60" lane="E2_0" slope="0.00"/>
    </timestep>
    <timestep time="15.00">
        <vehicle id="f_0.0" x="163.43" y="9.43" angle="221.96" type="DEFAULT_VEHTYPE" speed="3.76" pos="1.20" lane=":J6_0_0" slope="0.00"/>
        <vehicle id="f_0.1" x="182.11" y="32.84" angle="217.91" type="DEFAULT_VEHTYPE" speed="13.24" pos="126.57" lane="-E4_0" slope="0.00"/>
        <vehicle id="f_0.2" x="208.66" y="66.94" angle="217.91" type="DEFAULT_VEHTYPE" speed="14.28" pos="83.35" lane="-E4_0" slope="0.00"/>
        <vehicle id="f_0.3" x="229.65" y="93.89" angle="217.91" type="DEFAULT_VEHTYPE" speed="11.95" pos="49.19" lane="-E4_0" slope="0.00"/>
        <vehicle id="f_0.4" x="249.45" y="119.31" angle="217.91" type="DEFAULT_VEHTYPE" speed="5.55" pos="16.97" lane="-E4_0" slope="0.00"/>
        <vehicle id="f_0.5" x="256.75" y="128.68" angle="217.91" type="DEFAULT_VEHTYPE" speed="0.00" pos="5.10" lane="-E4_0" slope="0.00"/>
        <vehicle id="f_1.0" x="38.19" y="110.37" angle="130.20" type="DEFAULT_VEHTYPE" speed="5.37" pos="5.62" lane="E3_0" slope="0.00"/>
        <vehicle id="f_1.1" x="26.70" y="106.93" angle="35.58" type="DEFAULT_VEHTYPE" speed="7.44" pos="123.64" lane="E2_0" slope="0.00"/>
        <vehicle id="f_1.2" x="-1.90" y="66.94" angle="35.58" type="DEFAULT_VEHTYPE" speed="11.03" pos="74.48" lane="E2_0" slope="0.00"/>
        <vehicle id="f_1.3" x="-16.90" y="45.97" angle="35.58" type="DEFAULT_VEHTYPE" speed="11.53" pos="48.69" lane="E2_0" slope="0.00"/>
        <vehicle id="f_1.4" x="-35.00" y="20.67" angle="35.58" type="DEFAULT_VEHTYPE" speed="5.98" pos="17.58" lane="E2_0" slope="0.00"/>
        <vehicle id="f_1.5" x="-42.26" y="10.52" angle="35.58" type="DEFAULT_VEHTYPE" speed="0.00" pos="5.10" lane="E2_0" slope="0.00"/>
    </timestep>
    <timestep time="16.00">
        <vehicle id="f_0.0" x="160.71" y="11.03" angle="277.49" type="DEFAULT_VEHTYPE" speed="3.28" pos="1.82" lane="-E3_0" slope="0.00"/>
        <vehicle id="f_0.1" x="175.47" y="24.31" angle="217.91" type="DEFAULT_VEHTYPE" speed="10.81" pos="137.37" lane="-E4_0" slope="0.00"/>
        <vehicle id="f_0.2" x="200.29" y="56.19" angle="217.91" type="DEFAULT_VEHTYPE" speed="13.62" pos="96.97" lane="-E4_0" slope="0.00"/>
        <vehicle id="f_0.3" x="221.09" y="82.89" angle="217.91" type="DEFAULT_VEHTYPE" speed="13.94" pos="63.13" lane="-E4_0" slope="0.00"/>
        <vehicle id="f_0.4" x="244.47" y="112.92" angle="217.91" type="DEFAULT_VEHTYPE" speed="8.10" pos="25.07" lane="-E4_0" slope="0.00"/>
        <vehicle id="f_0.5" x="255.39" y="126.93" angle="217.91" type="DEFAULT_VEHTYPE" speed="2.21" pos="7.31" lane="-E4_0" slope="0.00"/>
        <vehicle id="f_1.0" x="44.15" y="105.33" angle="130.20" type="DEFAULT_VEHTYPE" speed="7.80" pos="13.43" lane="E3_0" slope="0.00"/>
        <vehicle id="f_1.1" x="30.48" y="112.22" angle="35.58" type="DEFAULT_VEHTYPE" speed="6.50" pos="130.14" lane="E2_0" slope="0.00"/>
        <vehicle id="f_1.2" x="4.46" y="75.84" angle="35.58" type="DEFAULT_VEHTYPE" speed="10.94" pos="85.42" lane="E2_0" slope="0.00"/>
        <vehicle id="f_1.3" x="-10.40" y="55.06" angle="35.58" type="DEFAULT_VEHTYPE" speed="11.18" pos="59.87" lane="E2_0" slope="0.00"/>
        <vehicle id="f_1.4" x="-30.35" y="27.17" angle="35.58" type="DEFAULT_VEHTYPE" speed="7.99" pos="25.57" lane="E2_0" slope="0.00"/>
        <vehicle id="f_1.5" x="-40.85" y="12.50" angle="35.58" type="DEFAULT_VEHTYPE" speed="2.43" pos="7.53" lane="E2_0" slope="0.00"/>
    </timestep>
    <timestep time="17.00">
        <vehicle id="f_0.0" x="157.10" y="14.07" angle="310.20" type="DEFAULT_VEHTYPE" speed="4.72" pos="6.54" lane="-E3_0" slope="0.00"/>
        <vehicle id="f_0.1" x="169.86" y="17.11" angle="217.91" type="DEFAULT_VEHTYPE" speed="9.13" pos="146.50" lane="-E4_0" slope="0.00"/>
        <vehicle id="f_0.2" x="192.17" y="45.76" angle="217.91" type="DEFAULT_VEHTYPE" speed="13.22" pos="110.19" lane="-E4_0" slope="0.00"/>
        <vehicle id="f_0.3" x="212.86" y="72.32" angle="217.91" type="DEFAULT_VEHTYPE" speed="13.40" pos="76.53" lane="-E4_0" slope="0.00"/>
        <vehicle id="f_0.4" x="238.37" y="105.08" angle="217.91" type="DEFAULT_VEHTYPE" speed="9.94" pos="35.01" lane="-E4_0" slope="0.00"/>
        <vehicle id="f_0.5" x="253.01" y="123.88" angle="217.91" type="DEFAULT_VEHTYPE" speed="3.88" pos="11.18" lane="-E4_0" slope="0.00"/>
        <vehicle id="f_1.0" x="51.50" y="99.12" angle="130.20" type="DEFAULT_VEHTYPE" speed="9.63" pos="23.06" lane="E3_0" slope="0.00"/>
        <vehicle id="f_1.1" x="32.83" y="114.46" angle="42.73" type="DEFAULT_VEHTYPE" speed="3.39" pos="1.55" lane=":J5_1_0" slope="0.00"/>
        <vehicle id="f_1.2" x="10.51" y="84.30" angle="35.58" type="DEFAULT_VEHTYPE" speed="10.40" pos="95.82" lane="E2_0" slope="0.00"/>
        <vehicle id="f_1.3" x="-3.69" y="64.45" angle="35.58" type="DEFAULT_VEHTYPE" speed="11.54" pos="71.41" lane="E2_0" slope="0.00"/>
        <vehicle id="f_1.4" x="-24.92" y="34.76" angle="35.58" type="DEFAULT_VEHTYPE" speed="9.34" pos="34.91" lane="E2_0" slope="0.00"/>
        <vehicle id="f_1.5" x="-38.32" y="16.02" angle="35.58" type="DEFAULT_VEHTYPE" speed="4.34" pos="11.87" lane="E2_0" slope="0.00"/>
    </timestep>
    <timestep time="18.00">
        <vehicle id="f_0.0" x="151.51" y="18.79" angle="310.20" type="DEFAULT_VEHTYPE" speed="7.32" pos="13.86" lane="-E3_0" slope="0.00"/>
        <vehicle id="f_0.1" x="165.23" y="11.17" angle="217.91" type="DEFAULT_VEHTYPE" speed="7.54" pos="154.04" lane="-E4_0" slope="0.00"/>
        <vehicle id="f_0.2" x="183.53" y="34.67" angle="217.91" type="DEFAULT_VEHTYPE" speed="14.05" pos="124.24" lane="-E4_0" slope="0.00"/>
        <vehicle id="f_0.3" x="204.33" y="61.38" angle="217.91" type="DEFAULT_VEHTYPE" speed="13.87" pos="90.40" lane="-E4_0" slope="0.00"/>
        <vehicle id="f_0.4" x="230.67" y="95.20" angle="217.91" type="DEFAULT_VEHTYPE" speed="12.52" pos="47.53" lane="-E4_0" slope="0.00"/>
        <vehicle id="f_0.5" x="249.68" y="119.61" angle="217.91" type="DEFAULT_VEHTYPE" speed="5.41" pos="16.59" lane="-E4_0" slope="0.00"/>
        <vehicle id="f_0.6" x="256.75" y="128.68" angle="217.91" type="DEFAULT_VEHTYPE" speed="0.00" pos="5.10" lane="-E4_0" slope="0.00"/>
        <vehicle id="f_1.0" x="60.47" y="91.54" angle="130.20" type="DEFAULT_VEHTYPE" speed="11.74" pos="34.80" lane="E3_0" slope="0.00"/>
        <vehicle id="f_1.1" x="36.21" y="112.04" angle="118.34" type="DEFAULT_VEHTYPE" speed="4.22" pos="3.04" lane="E3_0" slope="0.00"/>
        <vehicle id="f_1.2" x="17.10" y="93.52" angle="35.58" type="DEFAULT_VEHTYPE" speed="11.33" pos="107.15" lane="E2_0" slope="0.00"/>
        <vehicle id="f_1.3" x="2.97" y="73.75" angle="35.58" type="DEFAULT_VEHTYPE" speed="11.44" pos="82.85" lane="E2_0" slope="0.00"/>
        <vehicle id="f_1.4" x="-18.29" y="44.04" angle="35.58" type="DEFAULT_VEHTYPE" speed="11.40" pos="46.31" lane="E2_0" slope="0.00"/>
        <vehicle id="f_1.5" x="-34.34" y="21.59" angle="35.58" type="DEFAULT_VEHTYPE" speed="6.84" pos="18.71" lane="E2_0" slope="0.00"/>
        <vehicle id="f_1.6" x="-42.26" y="10.52" angle="35.58" type="DEFAULT_VEHTYPE" speed="0.00" pos="5.10" lane="E2_0" slope="0.00"/>
    </timestep>
    <timestep time="19.00">
        <vehicle id="f_0.0" x="144.27" y="24.92" angle="310.20" type="DEFAULT_VEHTYPE" speed="9.49" pos="23.35" lane="-E3_0" slope="0.00"/>
        <vehicle id="f_0.1" x="162.97" y="9.43" angle="226.55" type="DEFAULT_VEHTYPE" speed="3.04" pos="1.67" lane=":J6_0_0" slope="0.00"/>
        <vehicle id="f_0.2" x="175.93" y="24.91" angle="217.91" type="DEFAULT_VEHTYPE" speed="12.37" pos="136.61" lane="-E4_0" slope="0.00"/>
        <vehicle id="f_0.3" x="195.57" y="50.13" angle="217.91" type="DEFAULT_VEHTYPE" speed="14.26" pos="104.66" lane="-E4_0" slope="0.00"/>
        <vehicle id="f_0.4" x="223.32" y="85.75" angle="217.91" type="DEFAULT_VEHTYPE" speed="11.97" pos="59.50" lane="-E4_0" slope="0.00"/>
        <vehicle id="f_0.5" x="245.00" y="113.60" angle="217.91" type="DEFAULT_VEHTYPE" speed="7.62" pos="24.21" lane="-E4_0" slope="0.00"/>
        <vehicle id="f_0.6" x="255.92" y="127.61" angle="217.91" type="DEFAULT_VEHTYPE" speed="1.35" pos="6.45" lane="-E4_0" slope="0.00"/>
        <vehicle id="f_1.0" x="70.32" y="83.21" angle="130.20" type="DEFAULT_VEHTYPE" speed="12.90" pos="47.70" lane="E3_0" slope="0.00"/>
        <vehicle id="f_1.1" x="41.35" y="107.69" angle="130.20" type="DEFAULT_VEHTYPE" speed="6.73" pos="9.77" lane="E3_0" slope="0.00"/>
        <vehicle id="f_1.2" x="23.78" y="102.85" angle="35.58" type="DEFAULT_VEHTYPE" speed="11.48" pos="118.63" lane="E2_0" slope="0.00"/>
        <vehicle id="f_1.3" x="10.00" y="83.58" angle="35.58" type="DEFAULT_VEHTYPE" speed="12.09" pos="94.94" lane="E2_0" slope="0.00"/>
        <vehicle id="f_1.4" x="-11.98" y="52.86" angle="35.58" type="DEFAULT_VEHTYPE" speed="10.84" pos="57.16" lane="E2_0" slope="0.00"/>
        <vehicle id="f_1.5" x="-29.53" y="28.32" angle="35.58" type="DEFAULT_VEHTYPE" speed="8.27" pos="26.98" lane="E2_0" slope="0.00"/>
        <vehicle id="f_1.6" x="-41.51" y="11.58" angle="35.58" type="DEFAULT_VEHTYPE" speed="1.30" pos="6.40" lane="E2_0" slope="0.00"/>
    </timestep>
    <timestep time="20.00">
        <vehicle id="f_0.0" x="135.16" y="32.61" angle="310.20" type="DEFAULT_VEHTYPE" speed="11.92" pos="35.27" lane="-E3_0" slope="0.00"/>
        <vehicle id="f_0.1" x="160.37" y="11.31" angle="285.89" type="DEFAULT_VEHTYPE" speed="3.25" pos="2.26" lane="-E3_0" slope="0.00"/>
        <vehicle id="f_0.2" x="170.91" y="18.47" angle="217.91" type="DEFAULT_VEHTYPE" speed="8.17" pos="144.78" lane="-E4_0" slope="0.00"/>
        <vehicle id="f_0.3" x="186.81" y="38.88" angle="217.91" type="DEFAULT_VEHTYPE" speed="14.25" pos="118.91" lane="-E4_0" slope="0.00"/>
        <vehicle id="f_0.4" x="215.97" y="76.32" angle="217.91" type="DEFAULT_VEHTYPE" speed="11.95" pos="71.45" lane="-E4_0" slope="0.00"/>
        <vehicle id="f_0.5" x="238.96" y="105.84" angle="217.91" type="DEFAULT_VEHTYPE" speed="9.83" pos="34.04" lane="-E4_0" slope="0.00"/>
        <vehicle id="f_0.6" x="254.19" y="125.40" angle="217.91" type="DEFAULT_VEHTYPE" speed="2.81" pos="9.26" lane="-E4_0" slope="0.00"/>
        <vehicle id="f_1.0" x="79.61" y="75.37" angle="130.20" type="DEFAULT_VEHTYPE" speed="12.16" pos="59.86" lane="E3_0" slope="0.00"/>
        <vehicle id="f_1.1" x="48.38" y="101.76" angle="130.20" type="DEFAULT_VEHTYPE" speed="9.20" pos="18.97" lane="E3_0" slope="0.00"/>
        <vehicle id="f_1.2" x="28.53" y="109.48" angle="35.58" type="DEFAULT_VEHTYPE" speed="8.15" pos="126.78" lane="E2_0" slope="0.00"/>
        <vehicle id="f_1.3" x="16.75" y="93.02" angle="35.58" type="DEFAULT_VEHTYPE" speed="11.61" pos="106.55" lane="E2_0" slope="0.00"/>
        <vehicle id="f_1.4" x="-5.76" y="61.54" angle="35.58" type="DEFAULT_VEHTYPE" speed="10.68" pos="67.84" lane="E2_0" slope="0.00"/>
        <vehicle id="f_1.5" x="-23.92" y="36.17" angle="35.58" type="DEFAULT_VEHTYPE" speed="9.65" pos="36.63" lane="E2_0" slope="0.00"/>
        <vehicle id="f_1.6" x="-39.95" y="13.75" angle="35.58" type="DEFAULT_VEHTYPE" speed="2.68" pos="9.08" lane="E2_0" slope="0.00"/>
    </timestep>
    <timestep time="21.00">
        <vehicle id="f_0.0" x="124.50" y="41.62" angle="310.20" type="DEFAULT_VEHTYPE" speed="13.95" pos="49.22" lane="-E3_0" slope="0.00"/>
        <vehicle id="f_0.1" x="156.04" y="14.97" angle="310.20" type="DEFAULT_VEHTYPE" speed="5.67" pos="7.93" lane="-E3_0" slope="0.00"/>
        <vehicle id="f_0.2" x="167.82" y="14.50" angle="217.91" type="DEFAULT_VEHTYPE" speed="5.03" pos="149.81" lane="-E4_0" slope="0.00"/>
        <vehicle id="f_0.3" x="180.02" y="30.16" angle="217.91" type="DEFAULT_VEHTYPE" speed="11.06" pos="129.97" lane="-E4_0" slope="0.00"/>
        <vehicle id="f_0.4" x="208.40" y="66.61" angle="217.91" type="DEFAULT_VEHTYPE" speed="12.32" pos="83.77" lane="-E4_0" slope="0.00"/>
        <vehicle id="f_0.5" x="231.56" y="96.34" angle="217.91" type="DEFAULT_VEHTYPE" speed="12.04" pos="46.08" lane="-E4_0" slope="0.00"/>
        <vehicle id="f_0.6" x="250.91" y="121.18" angle="217.91" type="DEFAULT_VEHTYPE" speed="5.34" pos="14.60" lane="-E4_0" slope="0.00"/>
        <vehicle id="f_0.7" x="256.75" y="128.68" angle="217.91" type="DEFAULT_VEHTYPE" speed="0.00" pos="5.10" lane="-E4_0" slope="0.00"/>
        <vehicle id="f_1.0" x="89.00" y="67.43" angle="130.20" type="DEFAULT_VEHTYPE" speed="12.29" pos="72.15" lane="E3_0" slope="0.00"/>
        <vehicle id="f_1.1" x="57.26" y="94.25" angle="130.20" type="DEFAULT_VEHTYPE" speed="11.64" pos="30.60" lane="E3_0" slope="0.00"/>
        <vehicle id="f_1.2" x="31.40" y="113.50" angle="35.58" type="DEFAULT_VEHTYPE" speed="4.94" pos="131.72" lane="E2_0" slope="0.00"/>
        <vehicle id="f_1.3" x="22.05" y="100.43" angle="35.58" type="DEFAULT_VEHTYPE" speed="9.11" pos="115.65" lane="E2_0" slope="0.00"/>
        <vehicle id="f_1.4" x="0.42" y="70.19" angle="35.58" type="DEFAULT_VEHTYPE" speed="10.63" pos="78.47" lane="E2_0" slope="0.00"/>
        <vehicle id="f_1.5" x="-17.51" y="45.13" angle="35.58" type="DEFAULT_VEHTYPE" speed="11.02" pos="47.66" lane="E2_0" slope="0.00"/>
        <vehicle id="f_1.6" x="-37.41" y="17.30" angle="35.58" type="DEFAULT_VEHTYPE" speed="4.37" pos="13.44" lane="E2_0" slope="0.00"/>
        <vehicle id="f_1.7" x="-42.26" y="10.52" angle="35.58" type="DEFAULT_VEHTYPE" speed="0.00" pos="5.10" lane="E2_0" slope="0.00"/>
    </timestep>
    <timestep time="22.00">
        <vehicle id="f_0.0" x="114.12" y="50.39" angle="310.20" type="DEFAULT_VEHTYPE" speed="13.60" pos="62.82" lane="-E3_0" slope="0.00"/>
        <vehicle id="f_0.1" x="150.68" y="19.50" angle="310.20" type="DEFAULT_VEHTYPE" speed="7.02" pos="14.95" lane="-E3_0" slope="0.00"/>
        <vehicle id="f_0.2" x="165.07" y="10.96" angle="217.91" type="DEFAULT_VEHTYPE" speed="4.49" pos="154.30" lane="-E4_0" slope="0.00"/>
        <vehicle id="f_0.3" x="175.24" y="24.02" angle="217.91" type="DEFAULT_VEHTYPE" speed="7.78" pos="137.75" lane="-E4_0" slope="0.00"/>
        <vehicle id="f_0.4" x="200.78" y="56.82" angle="217.91" type="DEFAULT_VEHTYPE" speed="12.40" pos="96.17" lane="-E4_0" slope="0.00"/>
        <vehicle id="f_0.5" x="223.30" y="85.73" angle="217.91" type="DEFAULT_VEHTYPE" speed="13.44" pos="59.53" lane="-E4_0" slope="0.00"/>
        <vehicle id="f_0.6" x="246.36" y="115.34" angle="217.91" type="DEFAULT_VEHTYPE" speed="7.40" pos="22.00" lane="-E4_0" slope="0.00"/>
        <vehicle id="f_0.7" x="255.49" y="127.07" angle="217.91" type="DEFAULT_VEHTYPE" speed="2.04" pos="7.14" lane="-E4_0" slope="0.00"/>
        <vehicle id="f_1.0" x="98.65" y="59.28" angle="130.20" type="DEFAULT_VEHTYPE" speed="12.64" pos="84.79" lane="E3_0" slope="0.00"/>
        <vehicle id="f_1.1" x="67.93" y="85.23" angle="130.20" type="DEFAULT_VEHTYPE" speed="13.97" pos="44.57" lane="E3_0" slope="0.00"/>
        <vehicle id="f_1.2" x="33.55" y="114.21" angle="53.12" type="DEFAULT_VEHTYPE" speed="2.59" pos="2.33" lane=":J5_1_0" slope="0.00"/>
        <vehicle id="f_1.3" x="25.90" y="105.81" angle="35.58" type="DEFAULT_VEHTYPE" speed="6.61" pos="122.26" lane="E2_0" slope="0.00"/>
        <vehicle id="f_1.4" x="7.25" y="79.73" angle="35.58" type="DEFAULT_VEHTYPE" speed="11.74" pos="90.21" lane="E2_0" slope="0.00"/>
        <vehicle id="f_1.5" x="-10.00" y="55.62" angle="35.58" type="DEFAULT_VEHTYPE" speed="12.90" pos="60.56" lane="E2_0" slope="0.00"/>
        <vehicle id="f_1.6" x="-34.09" y="21.94" angle="35.58" type="DEFAULT_VEHTYPE" speed="5.70" pos="19.14" lane="E2_0" slope="0.00"/>
        <vehicle id="f_1.7" x="-41.84" y="11.11" angle="35.58" type="DEFAULT_VEHTYPE" speed="0.73" pos="5.83" lane="E2_0" slope="0.00"/>
    </timestep>
    <timestep time="23.00">
        <vehicle id="f_0.0" x="103.34" y="59.49" angle="310.20" type="DEFAULT_VEHTYPE" speed="14.10" pos="76.92" lane="-E3_0" slope="0.00"/>