<?xml version="1.0" encoding="UTF-8"?>

<!-- generated on 2024-03-24 01:13:17 by Eclipse SUMO GUI Version 1.19.0
<configuration xmlns:xsi="http://www.w3.org/2001/XMLSchema-instance" xsi:noNamespaceSchemaLocation="http://sumo.dlr.de/xsd/sumoConfiguration.xsd">

    <input>
        <net-file value="loopa.net.xml"/>
        <route-files value="loopa.rou.xml"/>
    </input>

    <output>
        <fcd-output value="loopa.txt"/>
    </output>

</configuration>
-->

<fcd-export xmlns:xsi="http://www.w3.org/2001/XMLSchema-instance" xsi:noNamespaceSchemaLocation="http://sumo.dlr.de/xsd/fcd_file.xsd">
    <timestep time="0.00">
        <vehicle id="f_0.0" x="8.30" y="98.40" angle="90.00" type="DEFAULT_VEHTYPE" speed="0.00" pos="5.10" lane="-E4_0" slope="0.00"/>
        <vehicle id="f_1.0" x="101.60" y="8.30" angle="0.00" type="DEFAULT_VEHTYPE" speed="0.00" pos="5.10" lane="E3_0" slope="0.00"/>
    </timestep>
    <timestep time="1.00">
        <vehicle id="f_0.0" x="9.70" y="98.40" angle="90.00" type="DEFAULT_VEHTYPE" speed="1.40" pos="6.50" lane="-E4_0" slope="0.00"/>
        <vehicle id="f_1.0" x="101.60" y="10.31" angle="0.00" type="DEFAULT_VEHTYPE" speed="2.01" pos="7.11" lane="E3_0" slope="0.00"/>
    </timestep>
    <timestep time="2.00">
        <vehicle id="f_0.0" x="13.14" y="98.40" angle="90.00" type="DEFAULT_VEHTYPE" speed="3.44" pos="9.94" lane="-E4_0" slope="0.00"/>
        <vehicle id="f_1.0" x="101.60" y="14.15" angle="0.00" type="DEFAULT_VEHTYPE" speed="3.84" pos="10.95" lane="E3_0" slope="0.00"/>
    </timestep>
    <timestep time="3.00">
        <vehicle id="f_0.0" x="18.23" y="98.40" angle="90.00" type="DEFAULT_VEHTYPE" speed="5.09" pos="15.03" lane="-E4_0" slope="0.00"/>
        <vehicle id="f_0.1" x="8.30" y="98.40" angle="90.00" type="DEFAULT_VEHTYPE" speed="0.00" pos="5.10" lane="-E4_0" slope="0.00"/>
        <vehicle id="f_1.0" x="101.60" y="19.52" angle="0.00" type="DEFAULT_VEHTYPE" speed="5.37" pos="16.32" lane="E3_0" slope="0.00"/>
        <vehicle id="f_1.1" x="101.60" y="8.30" angle="0.00" type="DEFAULT_VEHTYPE" speed="0.00" pos="5.10" lane="E3_0" slope="0.00"/>
    </timestep>
    <timestep time="4.00">
        <vehicle id="f_0.0" x="25.46" y="98.40" angle="90.00" type="DEFAULT_VEHTYPE" speed="7.23" pos="22.26" lane="-E4_0" slope="0.00"/>
        <vehicle id="f_0.1" x="10.68" y="98.40" angle="90.00" type="DEFAULT_VEHTYPE" speed="2.38" pos="7.48" lane="-E4_0" slope="0.00"/>
        <vehicle id="f_1.0" x="101.60" y="27.32" angle="0.00" type="DEFAULT_VEHTYPE" speed="7.80" pos="24.12" lane="E3_0" slope="0.00"/>
        <vehicle id="f_1.1" x="101.60" y="9.74" angle="0.00" type="DEFAULT_VEHTYPE" speed="1.44" pos="6.54" lane="E3_0" slope="0.00"/>
    </timestep>
    <timestep time="5.00">
        <vehicle id="f_0.0" x="34.41" y="98.40" angle="90.00" type="DEFAULT_VEHTYPE" speed="8.94" pos="31.21" lane="-E4_0" slope="0.00"/>
        <vehicle id="f_0.1" x="14.47" y="98.40" angle="90.00" type="DEFAULT_VEHTYPE" speed="3.79" pos="11.27" lane="-E4_0" slope="0.00"/>
        <vehicle id="f_1.0" x="101.60" y="36.88" angle="0.00" type="DEFAULT_VEHTYPE" speed="9.56" pos="33.68" lane="E3_0" slope="0.00"/>
        <vehicle id="f_1.1" x="101.60" y="12.62" angle="0.00" type="DEFAULT_VEHTYPE" speed="2.87" pos="9.42" lane="E3_0" slope="0.00"/>
    </timestep>
    <timestep time="6.00">
        <vehicle id="f_0.0" x="45.86" y="98.40" angle="90.00" type="DEFAULT_VEHTYPE" speed="11.45" pos="42.66" lane="-E4_0" slope="0.00"/>
        <vehicle id="f_0.1" x="20.79" y="98.40" angle="90.00" type="DEFAULT_VEHTYPE" speed="6.32" pos="17.59" lane="-E4_0" slope="0.00"/>
        <vehicle id="f_0.2" x="8.30" y="98.40" angle="90.00" type="DEFAULT_VEHTYPE" speed="0.00" pos="5.10" lane="-E4_0" slope="0.00"/>
        <vehicle id="f_1.0" x="101.60" y="48.36" angle="0.00" type="DEFAULT_VEHTYPE" speed="11.48" pos="45.16" lane="E3_0" slope="0.00"/>
        <vehicle id="f_1.1" x="101.60" y="17.65" angle="0.00" type="DEFAULT_VEHTYPE" speed="5.03" pos="14.45" lane="E3_0" slope="0.00"/>
        <vehicle id="f_1.2" x="101.60" y="8.30" angle="0.00" type="DEFAULT_VEHTYPE" speed="0.00" pos="5.10" lane="E3_0" slope="0.00"/>
    </timestep>
    <timestep time="7.00">
        <vehicle id="f_0.0" x="59.58" y="98.40" angle="90.00" type="DEFAULT_VEHTYPE" speed="13.72" pos="56.38" lane="-E4_0" slope="0.00"/>
        <vehicle id="f_0.1" x="29.36" y="98.40" angle="90.00" type="DEFAULT_VEHTYPE" speed="8.58" pos="26.16" lane="-E4_0" slope="0.00"/>
        <vehicle id="f_0.2" x="10.29" y="98.40" angle="90.00" type="DEFAULT_VEHTYPE" speed="1.99" pos="7.09" lane="-E4_0" slope="0.00"/>
        <vehicle id="f_1.0" x="101.60" y="60.32" angle="0.00" type="DEFAULT_VEHTYPE" speed="11.96" pos="57.12" lane="E3_0" slope="0.00"/>
        <vehicle id="f_1.1" x="101.60" y="24.15" angle="0.00" type="DEFAULT_VEHTYPE" speed="6.50" pos="20.95" lane="E3_0" slope="0.00"/>
        <vehicle id="f_1.2" x="101.60" y="10.39" angle="0.00" type="DEFAULT_VEHTYPE" speed="2.09" pos="7.19" lane="E3_0" slope="0.00"/>
    </timestep>
    <timestep time="8.00">
        <vehicle id="f_0.0" x="73.41" y="98.40" angle="90.00" type="DEFAULT_VEHTYPE" speed="13.83" pos="70.21" lane="-E4_0" slope="0.00"/>
        <vehicle id="f_0.1" x="40.08" y="98.40" angle="90.00" type="DEFAULT_VEHTYPE" speed="10.72" pos="36.88" lane="-E4_0" slope="0.00"/>
        <vehicle id="f_0.2" x="13.94" y="98.40" angle="90.00" type="DEFAULT_VEHTYPE" speed="3.65" pos="10.74" lane="-E4_0" slope="0.00"/>
        <vehicle id="f_1.0" x="101.60" y="72.79" angle="0.00" type="DEFAULT_VEHTYPE" speed="12.46" pos="69.59" lane="E3_0" slope="0.00"/>
        <vehicle id="f_1.1" x="101.60" y="32.96" angle="0.00" type="DEFAULT_VEHTYPE" speed="8.82" pos="29.76" lane="E3_0" slope="0.00"/>
        <vehicle id="f_1.2" x="101.60" y="13.80" angle="0.00" type="DEFAULT_VEHTYPE" speed="3.42" pos="10.60" lane="E3_0" slope="0.00"/>
    </timestep>
    <timestep time="9.00">
        <vehicle id="f_0.0" x="85.40" y="98.40" angle="90.00" type="DEFAULT_VEHTYPE" speed="11.99" pos="82.20" lane="-E4_0" slope="0.00"/>
        <vehicle id="f_0.1" x="52.73" y="98.40" angle="90.00" type="DEFAULT_VEHTYPE" speed="12.65" pos="49.53" lane="-E4_0" slope="0.00"/>
        <vehicle id="f_0.2" x="19.08" y="98.40" angle="90.00" type="DEFAULT_VEHTYPE" speed="5.13" pos="15.88" lane="-E4_0" slope="0.00"/>
        <vehicle id="f_0.3" x="8.30" y="98.40" angle="90.00" type="DEFAULT_VEHTYPE" speed="0.00" pos="5.10" lane="-E4_0" slope="0.00"/>
        <vehicle id="f_1.0" x="101.60" y="85.00" angle="0.00" type="DEFAULT_VEHTYPE" speed="12.21" pos="81.80" lane="E3_0" slope="0.00"/>
        <vehicle id="f_1.1" x="101.60" y="43.69" angle="0.00" type="DEFAULT_VEHTYPE" speed="10.72" pos="40.49" lane="E3_0" slope="0.00"/>
        <vehicle id="f_1.2" x="101.60" y="18.81" angle="0.00" type="DEFAULT_VEHTYPE" speed="5.01" pos="15.61" lane="E3_0" slope="0.00"/>
        <vehicle id="f_1.3" x="101.60" y="8.30" angle="0.00" type="DEFAULT_VEHTYPE" speed="0.00" pos="5.10" lane="E3_0" slope="0.00"/>
    </timestep>
    <timestep time="10.00">
        <vehicle id="f_0.0" x="93.76" y="98.40" angle="90.00" type="DEFAULT_VEHTYPE" speed="8.36" pos="90.56" lane="-E4_0" slope="0.00"/>
        <vehicle id="f_0.1" x="66.57" y="98.40" angle="90.00" type="DEFAULT_VEHTYPE" speed="13.84" pos="63.37" lane="-E4_0" slope="0.00"/>
        <vehicle id="f_0.2" x="25.80" y="98.40" angle="90.00" type="DEFAULT_VEHTYPE" speed="6.72" pos="22.60" lane="-E4_0" slope="0.00"/>
        <vehicle id="f_0.3" x="9.64" y="98.40" angle="90.00" type="DEFAULT_VEHTYPE" speed="1.34" pos="6.44" lane="-E4_0" slope="0.00"/>
        <vehicle id="f_1.0" x="101.60" y="94.10" angle="0.00" type="DEFAULT_VEHTYPE" speed="9.10" pos="90.90" lane="E3_0" slope="0.00"/>
        <vehicle id="f_1.1" x="101.60" y="56.82" angle="0.00" type="DEFAULT_VEHTYPE" speed="13.13" pos="53.62" lane="E3_0" slope="0.00"/>
        <vehicle id="f_1.2" x="101.60" y="25.61" angle="0.00" type="DEFAULT_VEHTYPE" speed="6.80" pos="22.41" lane="E3_0" slope="0.00"/>
        <vehicle id="f_1.3" x="101.60" y="10.13" angle="0.00" type="DEFAULT_VEHTYPE" speed="1.83" pos="6.93" lane="E3_0" slope="0.00"/>
    </timestep>
    <timestep time="11.00">
        <vehicle id="f_0.0" x="97.59" y="98.24" angle="91.80" type="DEFAULT_VEHTYPE" speed="3.86" pos="0.82" lane=":J7_1_0" slope="0.00"/>
        <vehicle id="f_0.1" x="78.75" y="98.40" angle="90.00" type="DEFAULT_VEHTYPE" speed="12.18" pos="75.55" lane="-E4_0" slope="0.00"/>
        <vehicle id="f_0.2" x="33.99" y="98.40" angle="90.00" type="DEFAULT_VEHTYPE" speed="8.19" pos="30.79" lane="-E4_0" slope="0.00"/>
        <vehicle id="f_0.3" x="12.82" y="98.40" angle="90.00" type="DEFAULT_VEHTYPE" speed="3.18" pos="9.62" lane="-E4_0" slope="0.00"/>
        <vehicle id="f_1.0" x="100.89" y="99.58" angle="351.71" type="DEFAULT_VEHTYPE" speed="5.62" pos="2.92" lane=":J7_0_0" slope="0.00"/>
        <vehicle id="f_1.1" x="101.60" y="71.08" angle="0.00" type="DEFAULT_VEHTYPE" speed="14.26" pos="67.88" lane="E3_0" slope="0.00"/>
        <vehicle id="f_1.2" x="101.60" y="34.48" angle="0.00" type="DEFAULT_VEHTYPE" speed="8.87" pos="31.28" lane="E3_0" slope="0.00"/>
        <vehicle id="f_1.3" x="101.60" y="13.87" angle="0.00" type="DEFAULT_VEHTYPE" speed="3.74" pos="10.67" lane="E3_0" slope="0.00"/>
    </timestep>
    <timestep time="12.00">
        <vehicle id="f_0.0" x="98.40" y="94.54" angle="155.54" type="DEFAULT_VEHTYPE" speed="4.03" pos="2.26" lane="-E3_0" slope="0.00"/>
        <vehicle id="f_0.1" x="86.49" y="98.40" angle="90.00" type="DEFAULT_VEHTYPE" speed="7.75" pos="83.29" lane="-E4_0" slope="0.00"/>
        <vehicle id="f_0.2" x="44.12" y="98.40" angle="90.00" type="DEFAULT_VEHTYPE" speed="10.14" pos="40.92" lane="-E4_0" slope="0.00"/>
        <vehicle id="f_0.3" x="17.58" y="98.40" angle="90.00" type="DEFAULT_VEHTYPE" speed="4.75" pos="14.38" lane="-E4_0" slope="0.00"/>
        <vehicle id="f_0.4" x="8.30" y="98.40" angle="90.00" type="DEFAULT_VEHTYPE" speed="0.00" pos="5.10" lane="-E4_0" slope="0.00"/>
        <vehicle id="f_1.0" x="96.50" y="101.60" angle="293.84" type="DEFAULT_VEHTYPE" speed="5.13" pos="0.30" lane="E4_0" slope="0.00"/>
        <vehicle id="f_1.1" x="101.60" y="81.81" angle="0.00" type="DEFAULT_VEHTYPE" speed="10.73" pos="78.61" lane="E3_0" slope="0.00"/>
        <vehicle id="f_1.2" x="101.60" y="45.08" angle="0.00" type="DEFAULT_VEHTYPE" speed="10.59" pos="41.88" lane="E3_0" slope="0.00"/>
        <vehicle id="f_1.3" x="101.60" y="19.48" angle="0.00" type="DEFAULT_VEHTYPE" speed="5.62" pos="16.28" lane="E3_0" slope="0.00"/>
        <vehicle id="f_1.4" x="101.60" y="8.30" angle="0.00" type="DEFAULT_VEHTYPE" speed="0.00" pos="5.10" lane="E3_0" slope="0.00"/>
    </timestep>
    <timestep time="13.00">
        <vehicle id="f_0.0" x="98.40" y="88.52" angle="180.00" type="DEFAULT_VEHTYPE" speed="6.01" pos="8.28" lane="-E3_0" slope="0.00"/>
        <vehicle id="f_0.1" x="92.12" y="98.40" angle="90.00" type="DEFAULT_VEHTYPE" speed="5.62" pos="88.92" lane="-E4_0" slope="0.00"/>
        <vehicle id="f_0.2" x="56.53" y="98.40" angle="90.00" type="DEFAULT_VEHTYPE" speed="12.41" pos="53.33" lane="-E4_0" slope="0.00"/>
        <vehicle id="f_0.3" x="24.47" y="98.40" angle="90.00" type="DEFAULT_VEHTYPE" speed="6.89" pos="21.27" lane="-E4_0" slope="0.00"/>
        <vehicle id="f_0.4" x="9.73" y="98.40" angle="90.00" type="DEFAULT_VEHTYPE" speed="1.43" pos="6.53" lane="-E4_0" slope="0.00"/>
        <vehicle id="f_1.0" x="89.42" y="101.60" angle="270.00" type="DEFAULT_VEHTYPE" speed="7.08" pos="7.38" lane="E4_0" slope="0.00"/>
        <vehicle id="f_1.1" x="101.60" y="90.49" angle="0.00" type="DEFAULT_VEHTYPE" speed="8.69" pos="87.29" lane="E3_0" slope="0.00"/>
        <vehicle id="f_1.2" x="101.60" y="55.65" angle="0.00" type="DEFAULT_VEHTYPE" speed="10.57" pos="52.45" lane="E3_0" slope="0.00"/>
        <vehicle id="f_1.3" x="101.60" y="26.53" angle="0.00" type="DEFAULT_VEHTYPE" speed="7.05" pos="23.33" lane="E3_0" slope="0.00"/>
        <vehicle id="f_1.4" x="101.60" y="10.05" angle="0.00" type="DEFAULT_VEHTYPE" speed="1.75" pos="6.85" lane="E3_0" slope="0.00"/>
    </timestep>
    <timestep time="14.00">
        <vehicle id="f_0.0" x="98.40" y="81.02" angle="180.00" type="DEFAULT_VEHTYPE" speed="7.51" pos="15.78" lane="-E3_0" slope="0.00"/>
        <vehicle id="f_0.1" x="95.88" y="98.40" angle="90.00" type="DEFAULT_VEHTYPE" speed="3.77" pos="92.68" lane="-E4_0" slope="0.00"/>
        <vehicle id="f_0.2" x="70.28" y="98.40" angle="90.00" type="DEFAULT_VEHTYPE" speed="13.75" pos="67.08" lane="-E4_0" slope="0.00"/>
        <vehicle id="f_0.3" x="33.67" y="98.40" angle="90.00" type="DEFAULT_VEHTYPE" speed="9.20" pos="30.47" lane="-E4_0" slope="0.00"/>
        <vehicle id="f_0.4" x="13.44" y="98.40" angle="90.00" type="DEFAULT_VEHTYPE" speed="3.71" pos="10.24" lane="-E4_0" slope="0.00"/>
        <vehicle id="f_1.0" x="79.85" y="101.60" angle="270.00" type="DEFAULT_VEHTYPE" speed="9.57" pos="16.95" lane="E4_0" slope="0.00"/>
        <vehicle id="f_1.1" x="101.60" y="96.06" angle="0.00" type="DEFAULT_VEHTYPE" speed="5.57" pos="92.86" lane="E3_0" slope="0.00"/>
        <vehicle id="f_1.2" x="101.60" y="66.88" angle="0.00" type="DEFAULT_VEHTYPE" speed="11.24" pos="63.68" lane="E3_0" slope="0.00"/>
        <vehicle id="f_1.3" x="101.60" y="35.32" angle="0.00" type="DEFAULT_VEHTYPE" speed="8.79" pos="32.12" lane="E3_0" slope="0.00"/>
        <vehicle id="f_1.4" x="101.60" y="13.17" angle="0.00" type="DEFAULT_VEHTYPE" speed="3.12" pos="9.97" lane="E3_0" slope="0.00"/>
    </timestep>
    <timestep time="15.00">
        <vehicle id="f_0.0" x="98.40" y="71.50" angle="180.00" type="DEFAULT_VEHTYPE" speed="9.52" pos="25.30" lane="-E3_0" slope="0.00"/>
        <vehicle id="f_0.1" x="98.38" y="96.94" angle="109.43" type="DEFAULT_VEHTYPE" speed="3.35" pos="2.44" lane=":J7_1_0" slope="0.00"/>
        <vehicle id="f_0.2" x="80.04" y="98.40" angle="90.00" type="DEFAULT_VEHTYPE" speed="9.77" pos="76.84" lane="-E4_0" slope="0.00"/>
        <vehicle id="f_0.3" x="44.19" y="98.40" angle="90.00" type="DEFAULT_VEHTYPE" speed="10.52" pos="40.99" lane="-E4_0" slope="0.00"/>
        <vehicle id="f_0.4" x="18.66" y="98.40" angle="90.00" type="DEFAULT_VEHTYPE" speed="5.22" pos="15.46" lane="-E4_0" slope="0.00"/>
        <vehicle id="f_0.5" x="8.30" y="98.40" angle="90.00" type="DEFAULT_VEHTYPE" speed="0.00" pos="5.10" lane="-E4_0" slope="0.00"/>
        <vehicle id="f_1.0" x="68.90" y="101.60" angle="270.00" type="DEFAULT_VEHTYPE" speed="10.95" pos="27.90" lane="E4_0" slope="0.00"/>
        <vehicle id="f_1.1" x="99.10" y="101.18" angle="328.55" type="DEFAULT_VEHTYPE" speed="6.12" pos="5.39" lane=":J7_0_0" slope="0.00"/>
        <vehicle id="f_1.2" x="101.60" y="77.40" angle="0.00" type="DEFAULT_VEHTYPE" speed="10.52" pos="74.20" lane="E3_0" slope="0.00"/>
        <vehicle id="f_1.3" x="101.60" y="45.47" angle="0.00" type="DEFAULT_VEHTYPE" speed="10.15" pos="42.27" lane="E3_0" slope="0.00"/>
        <vehicle id="f_1.4" x="101.60" y="17.89" angle="0.00" type="DEFAULT_VEHTYPE" speed="4.72" pos="14.69" lane="E3_0" slope="0.00"/>
        <vehicle id="f_1.5" x="101.60" y="8.30" angle="0.00" type="DEFAULT_VEHTYPE" speed="0.00" pos="5.10" lane="E3_0" slope="0.00"/>
    </timestep>
    <timestep time="16.00">
        <vehicle id="f_0.0" x="98.40" y="60.50" angle="180.00" type="DEFAULT_VEHTYPE" speed="11.00" pos="36.30" lane="-E3_0" slope="0.00"/>
        <vehicle id="f_0.1" x="98.40" y="93.74" angle="168.10" type="DEFAULT_VEHTYPE" speed="3.20" pos="3.06" lane="-E3_0" slope="0.00"/>
        <vehicle id="f_0.2" x="87.02" y="98.40" angle="90.00" type="DEFAULT_VEHTYPE" speed="6.98" pos="83.82" lane="-E4_0" slope="0.00"/>
        <vehicle id="f_0.3" x="56.05" y="98.40" angle="90.00" type="DEFAULT_VEHTYPE" speed="11.86" pos="52.85" lane="-E4_0" slope="0.00"/>
        <vehicle id="f_0.4" x="25.60" y="98.40" angle="90.00" type="DEFAULT_VEHTYPE" speed="6.94" pos="22.40" lane="-E4_0" slope="0.00"/>
        <vehicle id="f_0.5" x="9.94" y="98.40" angle="90.00" type="DEFAULT_VEHTYPE" speed="1.64" pos="6.74" lane="-E4_0" slope="0.00"/>
        <vehicle id="f_1.0" x="56.08" y="101.60" angle="270.00" type="DEFAULT_VEHTYPE" speed="12.82" pos="40.72" lane="E4_0" slope="0.00"/>
        <vehicle id="f_1.1" x="93.34" y="101.60" angle="272.50" type="DEFAULT_VEHTYPE" speed="5.82" pos="3.46" lane="E4_0" slope="0.00"/>
        <vehicle id="f_1.2" x="101.60" y="86.95" angle="0.00" type="DEFAULT_VEHTYPE" speed="9.54" pos="83.75" lane="E3_0" slope="0.00"/>
        <vehicle id="f_1.3" x="101.60" y="57.01" angle="0.00" type="DEFAULT_VEHTYPE" speed="11.55" pos="53.81" lane="E3_0" slope="0.00"/>
        <vehicle id="f_1.4" x="101.60" y="24.89" angle="0.00" type="DEFAULT_VEHTYPE" speed="7.00" pos="21.69" lane="E3_0" slope="0.00"/>
        <vehicle id="f_1.5" x="101.60" y="9.89" angle="0.00" type="DEFAULT_VEHTYPE" speed="1.59" pos="6.69" lane="E3_0" slope="0.00"/>
    </timestep>
    <timestep time="17.00">
        <vehicle id="f_0.0" x="98.40" y="48.10" angle="180.00" type="DEFAULT_VEHTYPE" speed="12.40" pos="48.70" lane="-E3_0" slope="0.00"/>
        <vehicle id="f_0.1" x="98.40" y="88.68" angle="180.00" type="DEFAULT_VEHTYPE" speed="5.06" pos="8.12" lane="-E3_0" slope="0.00"/>
        <vehicle id="f_0.2" x="92.83" y="98.40" angle="90.00" type="DEFAULT_VEHTYPE" speed="5.81" pos="89.63" lane="-E4_0" slope="0.00"/>
        <vehicle id="f_0.3" x="68.89" y="98.40" angle="90.00" type="DEFAULT_VEHTYPE" speed="12.84" pos="65.69" lane="-E4_0" slope="0.00"/>
        <vehicle id="f_0.4" x="34.95" y="98.40" angle="90.00" type="DEFAULT_VEHTYPE" speed="9.34" pos="31.75" lane="-E4_0" slope="0.00"/>
        <vehicle id="f_0.5" x="13.11" y="98.40" angle="90.00" type="DEFAULT_VEHTYPE" speed="3.17" pos="9.91" lane="-E4_0" slope="0.00"/>
        <vehicle id="f_1.0" x="44.21" y="101.60" angle="270.00" type="DEFAULT_VEHTYPE" speed="11.87" pos="52.59" lane="E4_0" slope="0.00"/>
        <vehicle id="f_1.1" x="86.12" y="101.60" angle="270.00" type="DEFAULT_VEHTYPE" speed="7.22" pos="10.68" lane="E4_0" slope="0.00"/>
        <vehicle id="f_1.2" x="101.60" y="96.06" angle="0.00" type="DEFAULT_VEHTYPE" speed="9.11" pos="92.86" lane="E3_0" slope="0.00"/>
        <vehicle id="f_1.3" x="101.60" y="68.98" angle="0.00" type="DEFAULT_VEHTYPE" speed="11.97" pos="65.78" lane="E3_0" slope="0.00"/>
        <vehicle id="f_1.4" x="101.60" y="33.78" angle="0.00" type="DEFAULT_VEHTYPE" speed="8.88" pos="30.58" lane="E3_0" slope="0.00"/>
        <vehicle id="f_1.5" x="101.60" y="13.67" angle="0.00" type="DEFAULT_VEHTYPE" speed="3.78" pos="10.47" lane="E3_0" slope="0.00"/>
    </timestep>
    <timestep time="18.00">
        <vehicle id="f_0.0" x="98.40" y="33.72" angle="180.00" type="DEFAULT_VEHTYPE" speed="14.38" pos="63.08" lane="-E3_0" slope="0.00"/>
        <vehicle id="f_0.1" x="98.40" y="81.34" angle="180.00" type="DEFAULT_VEHTYPE" speed="7.34" pos="15.46" lane="-E3_0" slope="0.00"/>
        <vehicle id="f_0.2" x="96.16" y="98.40" angle="90.00" type="DEFAULT_VEHTYPE" speed="3.32" pos="92.96" lane="-E4_0" slope="0.00"/>
        <vehicle id="f_0.3" x="78.10" y="98.40" angle="90.00" type="DEFAULT_VEHTYPE" speed="9.21" pos="74.90" lane="-E4_0" slope="0.00"/>
        <vehicle id="f_0.4" x="46.37" y="98.40" angle="90.00" type="DEFAULT_VEHTYPE" speed="11.42" pos="43.17" lane="-E4_0" slope="0.00"/>
        <vehicle id="f_0.5" x="17.94" y="98.40" angle="90.00" type="DEFAULT_VEHTYPE" speed="4.83" pos="14.74" lane="-E4_0" slope="0.00"/>
        <vehicle id="f_0.6" x="8.30" y="98.40" angle="90.00" type="DEFAULT_VEHTYPE" speed="0.00" pos="5.10" lane="-E4_0" slope="0.00"/>
        <vehicle id="f_1.0" x="31.70" y="101.60" angle="270.00" type="DEFAULT_VEHTYPE" speed="12.50" pos="65.10" lane="E4_0" slope="0.00"/>
        <vehicle id="f_1.1" x="77.35" y="101.60" angle="270.00" type="DEFAULT_VEHTYPE" speed="8.77" pos="19.45" lane="E4_0" slope="0.00"/>
        <vehicle id="f_1.2" x="100.40" y="100.40" angle="345.71" type="DEFAULT_VEHTYPE" speed="4.61" pos="3.87" lane=":J7_0_0" slope="0.00"/>
        <vehicle id="f_1.3" x="101.60" y="81.11" angle="0.00" type="DEFAULT_VEHTYPE" speed="12.13" pos="77.91" lane="E3_0" slope="0.00"/>
        <vehicle id="f_1.4" x="101.60" y="44.30" angle="0.00" type="DEFAULT_VEHTYPE" speed="10.53" pos="41.10" lane="E3_0" slope="0.00"/>
        <vehicle id="f_1.5" x="101.60" y="19.48" angle="0.00" type="DEFAULT_VEHTYPE" speed="5.81" pos="16.28" lane="E3_0" slope="0.00"/>
        <vehicle id="f_1.6" x="101.60" y="8.30" angle="0.00" type="DEFAULT_VEHTYPE" speed="0.00" pos="5.10" lane="E3_0" slope="0.00"/>
    </timestep>
    <timestep time="19.00">
        <vehicle id="f_0.0" x="98.40" y="19.47" angle="180.00" type="DEFAULT_VEHTYPE" speed="14.25" pos="77.33" lane="-E3_0" slope="0.00"/>
        <vehicle id="f_0.1" x="98.40" y="71.57" angle="180.00" type="DEFAULT_VEHTYPE" speed="9.77" pos="25.23" lane="-E3_0" slope="0.00"/>
        <vehicle id="f_0.2" x="98.40" y="96.47" angle="117.53" type="DEFAULT_VEHTYPE" speed="3.55" pos="0.33" lane="-E3_0" slope="0.00"/>
        <vehicle id="f_0.3" x="85.23" y="98.40" angle="90.00" type="DEFAULT_VEHTYPE" speed="7.13" pos="82.03" lane="-E4_0" slope="0.00"/>
        <vehicle id="f_0.4" x="58.45" y="98.40" angle="90.00" type="DEFAULT_VEHTYPE" speed="12.08" pos="55.25" lane="-E4_0" slope="0.00"/>
        <vehicle id="f_0.5" x="25.29" y="98.40" angle="90.00" type="DEFAULT_VEHTYPE" speed="7.34" pos="22.09" lane="-E4_0" slope="0.00"/>
        <vehicle id="f_0.6" x="10.14" y="98.40" angle="90.00" type="DEFAULT_VEHTYPE" speed="1.84" pos="6.94" lane="-E4_0" slope="0.00"/>
        <vehicle id="f_1.0" x="18.68" y="101.60" angle="270.00" type="DEFAULT_VEHTYPE" speed="13.03" pos="78.12" lane="E4_0" slope="0.00"/>
        <vehicle id="f_1.1" x="66.53" y="101.60" angle="270.00" type="DEFAULT_VEHTYPE" speed="10.81" pos="30.27" lane="E4_0" slope="0.00"/>
        <vehicle id="f_1.2" x="95.87" y="101.60" angle="286.53" type="DEFAULT_VEHTYPE" speed="4.79" pos="0.93" lane="E4_0" slope="0.00"/>
        <vehicle id="f_1.3" x="101.60" y="89.44" angle="0.00" type="DEFAULT_VEHTYPE" speed="8.33" pos="86.24" lane="E3_0" slope="0.00"/>
        <vehicle id="f_1.4" x="101.60" y="55.22" angle="0.00" type="DEFAULT_VEHTYPE" speed="10.92" pos="52.02" lane="E3_0" slope="0.00"/>
        <vehicle id="f_1.5" x="101.60" y="27.04" angle="0.00" type="DEFAULT_VEHTYPE" speed="7.56" pos="23.84" lane="E3_0" slope="0.00"/>
        <vehicle id="f_1.6" x="101.60" y="10.28" angle="0.00" type="DEFAULT_VEHTYPE" speed="1.98" pos="7.08" lane="E3_0" slope="0.00"/>
    </timestep>
    <timestep time="20.00">
        <vehicle id="f_0.0" x="98.40" y="9.72" angle="180.00" type="DEFAULT_VEHTYPE" speed="9.75" pos="87.08" lane="-E3_0" slope="0.00"/>
        <vehicle id="f_0.1" x="98.40" y="59.43" angle="180.00" type="DEFAULT_VEHTYPE" speed="12.14" pos="37.37" lane="-E3_0" slope="0.00"/>
        <vehicle id="f_0.2" x="98.40" y="91.55" angle="180.00" type="DEFAULT_VEHTYPE" speed="4.93" pos="5.25" lane="-E3_0" slope="0.00"/>
        <vehicle id="f_0.3" x="90.67" y="98.40" angle="90.00" type="DEFAULT_VEHTYPE" speed="5.44" pos="87.47" lane="-E4_0" slope="0.00"/>
        <vehicle id="f_0.4" x="69.27" y="98.40" angle="90.00" type="DEFAULT_VEHTYPE" speed="10.82" pos="66.07" lane="-E4_0" slope="0.00"/>
        <vehicle id="f_0.5" x="34.38" y="98.40" angle="90.00" type="DEFAULT_VEHTYPE" speed="9.09" pos="31.18" lane="-E4_0" slope="0.00"/>
        <vehicle id="f_0.6" x="14.37" y="98.40" angle="90.00" type="DEFAULT_VEHTYPE" speed="4.23" pos="11.17" lane="-E4_0" slope="0.00"/>
        <vehicle id="f_1.0" x="9.66" y="101.60" angle="270.00" type="DEFAULT_VEHTYPE" speed="9.01" pos="87.14" lane="E4_0" slope="0.00"/>
        <vehicle id="f_1.1" x="53.98" y="101.60" angle="270.00" type="DEFAULT_VEHTYPE" speed="12.56" pos="42.82" lane="E4_0" slope="0.00"/>
        <vehicle id="f_1.2" x="88.49" y="101.60" angle="270.00" type="DEFAULT_VEHTYPE" speed="7.38" pos="8.31" lane="E4_0" slope="0.00"/>
        <vehicle id="f_1.3" x="101.60" y="95.55" angle="0.00" type="DEFAULT_VEHTYPE" speed="6.11" pos="92.35" lane="E3_0" slope="0.00"/>
        <vehicle id="f_1.4" x="101.60" y="66.40" angle="0.00" type="DEFAULT_VEHTYPE" speed="11.18" pos="63.20" lane="E3_0" slope="0.00"/>
        <vehicle id="f_1.5" x="101.60" y="36.04" angle="0.00" type="DEFAULT_VEHTYPE" speed="9.00" pos="32.84" lane="E3_0" slope="0.00"/>
        <vehicle id="f_1.6" x="101.60" y="14.80" angle="0.00" type="DEFAULT_VEHTYPE" speed="4.51" pos="11.60" lane="E3_0" slope="0.00"/>
    </timestep>
    <timestep time="21.00">
        <vehicle id="f_0.0" x="98.40" y="3.76" angle="180.00" type="DEFAULT_VEHTYPE" speed="5.96" pos="93.04" lane="-E3_0" slope="0.00"/>
        <vehicle id="f_0.1" x="98.40" y="45.55" angle="180.00" type="DEFAULT_VEHTYPE" speed="13.88" pos="51.25" lane="-E3_0" slope="0.00"/>
        <vehicle id="f_0.2" x="98.40" y="85.30" angle="180.00" type="DEFAULT_VEHTYPE" speed="6.25" pos="11.50" lane="-E3_0" slope="0.00"/>
        <vehicle id="f_0.3" x="96.35" y="98.40" angle="90.00" type="DEFAULT_VEHTYPE" speed="5.68" pos="93.15" lane="-E4_0" slope="0.00"/>
        <vehicle id="f_0.4" x="77.63" y="98.40" angle="90.00" type="DEFAULT_VEHTYPE" speed="8.37" pos="74.43" lane="-E4_0" slope="0.00"/>
        <vehicle id="f_0.5" x="45.33" y="98.40" angle="90.00" type="DEFAULT_VEHTYPE" speed="10.95" pos="42.13" lane="-E4_0" slope="0.00"/>
        <vehicle id="f_0.6" x="19.90" y="98.40" angle="90.00" type="DEFAULT_VEHTYPE" speed="5.54" pos="16.70" lane="-E4_0" slope="0.00"/>
        <vehicle id="f_0.7" x="8.30" y="98.40" angle="90.00" type="DEFAULT_VEHTYPE" speed="0.00" pos="5.10" lane="-E4_0" slope="0.00"/>
        <vehicle id="f_1.0" x="3.79" y="101.60" angle="270.00" type="DEFAULT_VEHTYPE" speed="5.87" pos="93.01" lane="E4_0" slope="0.00"/>
        <vehicle id="f_1.1" x="39.05" y="101.60" angle="270.00" type="DEFAULT_VEHTYPE" speed="14.93" pos="57.75" lane="E4_0" slope="0.00"/>
        <vehicle id="f_1.2" x="78.64" y="101.60" angle="270.00" type="DEFAULT_VEHTYPE" speed="9.86" pos="18.16" lane="E4_0" slope="0.00"/>
        <vehicle id="f_1.3" x="100.83" y="99.68" angle="350.98" type="DEFAULT_VEHTYPE" speed="4.28" pos="3.03" lane=":J7_0_0" slope="0.00"/>
        <vehicle id="f_1.4" x="101.60" y="77.06" angle="0.00" type="DEFAULT_VEHTYPE" speed="10.66" pos="73.86" lane="E3_0" slope="0.00"/>
        <vehicle id="f_1.5" x="101.60" y="46.72" angle="0.00" type="DEFAULT_VEHTYPE" speed="10.68" pos="43.52" lane="E3_0" slope="0.00"/>
        <vehicle id="f_1.6" x="101.60" y="21.50" angle="0.00" type="DEFAULT_VEHTYPE" speed="6.71" pos="18.30" lane="E3_0" slope="0.00"/>
        <vehicle id="f_1.7" x="101.60" y="8.30" angle="0.00" type="DEFAULT_VEHTYPE" speed="0.00" pos="5.10" lane="E3_0" slope="0.00"/>
    </timestep>
    <timestep time="22.00">
        <vehicle id="f_0.0" x="96.91" y="1.62" angle="199.83" type="DEFAULT_VEHTYPE" speed="3.02" pos="2.46" lane=":J6_0_0" slope="0.00"/>
        <vehicle id="f_0.1" x="98.40" y="31.53" angle="180.00" type="DEFAULT_VEHTYPE" speed="14.01" pos="65.27" lane="-E3_0" slope="0.00"/>
        <vehicle id="f_0.2" x="98.40" y="77.22" angle="180.00" type="DEFAULT_VEHTYPE" speed="8.07" pos="19.58" lane="-E3_0" slope="0.00"/>
        <vehicle id="f_0.3" x="98.40" y="96.79" angle="111.96" type="DEFAULT_VEHTYPE" speed="3.04" pos="0.01" lane="-E3_0" slope="0.00"/>
        <vehicle id="f_0.4" x="85.95" y="98.40" angle="90.00" type="DEFAULT_VEHTYPE" speed="8.32" pos="82.75" lane="-E4_0" slope="0.00"/>
        <vehicle id="f_0.5" x="58.44" y="98.40" angle="90.00" type="DEFAULT_VEHTYPE" speed="13.12" pos="55.24" lane="-E4_0" slope="0.00"/>
        <vehicle id="f_0.6" x="27.84" y="98.40" angle="90.00" type="DEFAULT_VEHTYPE" speed="7.94" pos="24.64" lane="-E4_0" slope="0.00"/>
        <vehicle id="f_0.7" x="10.89" y="98.40" angle="90.00" type="DEFAULT_VEHTYPE" speed="2.59" pos="7.69" lane="-E4_0" slope="0.00"/>
        <vehicle id="f_1.0" x="-0.60" y="100.06" angle="251.27" type="DEFAULT_VEHTYPE" speed="4.86" pos="4.27" lane=":J4_0_0" slope="0.00"/>
        <vehicle id="f_1.1" x="25.83" y="101.60" angle="270.00" type="DEFAULT_VEHTYPE" speed="13.22" pos="70.97" lane="E4_0" slope="0.00"/>
        <vehicle id="f_1.2" x="67.55" y="101.60" angle="270.00" type="DEFAULT_VEHTYPE" speed="11.08" pos="29.25" lane="E4_0" slope="0.00"/>
        <vehicle id="f_1.3" x="96.20" y="101.60" angle="290.32" type="DEFAULT_VEHTYPE" speed="5.30" pos="0.60" lane="E4_0" slope="0.00"/>
        <vehicle id="f_1.4" x="101.60" y="85.81" angle="0.00" type="DEFAULT_VEHTYPE" speed="8.76" pos="82.61" lane="E3_0" slope="0.00"/>
        <vehicle id="f_1.5" x="101.60" y="59.37" angle="0.00" type="DEFAULT_VEHTYPE" speed="12.65" pos="56.17" lane="E3_0" slope="0.00"/>
        <vehicle id="f_1.6" x="101.60" y="30.74" angle="0.00" type="DEFAULT_VEHTYPE" speed="9.24" pos="27.54" lane="E3_0" slope="0.00"/>
        <vehicle id="f_1.7" x="101.60" y="10.79" angle="0.00" type="DEFAULT_VEHTYPE" speed="2.49" pos="7.59" lane="E3_0" slope="0.00"/>
    </timestep>
    <timestep time="23.00">
        <vehicle id="f_0.0" x="93.35" y="1.60" angle="262.56" type="DEFAULT_VEHTYPE" speed="3.56" pos="3.45" lane="-E2_0" slope="0.00"/>
        <vehicle id="f_0.1" x="98.40" y="19.29" angle="180.00" type="DEFAULT_VEHTYPE" speed="12.24" pos="77.51" lane="-E3_0" slope="0.00"/>
        <vehicle id="f_0.2" x="98.40" y="67.34" angle="180.00" type="DEFAULT_VEHTYPE" speed="9.89" pos="29.46" lane="-E3_0" slope="0.00"/>