<?xml version="1.0" encoding="UTF-8"?>

<!-- generated on 2024-03-19 00:40:58 by Eclipse SUMO GUI Version 1.19.0
<configuration xmlns:xsi="http://www.w3.org/2001/XMLSchema-instance" xsi:noNamespaceSchemaLocation="http://sumo.dlr.de/xsd/sumoConfiguration.xsd">

    <input>
        <net-file value="zigzag.net.xml"/>
        <route-files value="zigzag.rou.xml"/>
    </input>

    <output>
        <fcd-output value="zigzagoutput.txt"/>
    </output>

</configuration>
-->

<fcd-export xmlns:xsi="http://www.w3.org/2001/XMLSchema-instance" xsi:noNamespaceSchemaLocation="http://sumo.dlr.de/xsd/fcd_file.xsd">
    <timestep time="0.00">
        <vehicle id="f_0.0" x="19.57" y="92.70" angle="54.76" type="DEFAULT_VEHTYPE" speed="0.00" pos="5.10" lane="E0_0" slope="0.00"/>
    </timestep>
    <timestep time="1.00">
        <vehicle id="f_0.0" x="20.99" y="93.71" angle="54.76" type="DEFAULT_VEHTYPE" speed="1.75" pos="6.85" lane="E0_0" slope="0.00"/>
    </timestep>
    <timestep time="2.00">
        <vehicle id="f_0.0" x="23.98" y="95.82" angle="54.76" type="DEFAULT_VEHTYPE" speed="3.66" pos="10.51" lane="E0_0" slope="0.00"/>
    </timestep>
    <timestep time="3.00">
        <vehicle id="f_0.0" x="28.67" y="99.14" angle="54.76" type="DEFAULT_VEHTYPE" speed="5.75" pos="16.25" lane="E0_0" slope="0.00"/>
        <vehicle id="f_0.1" x="19.57" y="92.70" angle="54.76" type="DEFAULT_VEHTYPE" speed="0.00" pos="5.10" lane="E0_0" slope="0.00"/>
    </timestep>
    <timestep time="4.00">
        <vehicle id="f_0.0" x="34.66" y="103.37" angle="54.76" type="DEFAULT_VEHTYPE" speed="7.33" pos="23.58" lane="E0_0" slope="0.00"/>
        <vehicle id="f_0.1" x="20.87" y="93.62" angle="54.76" type="DEFAULT_VEHTYPE" speed="1.59" pos="6.69" lane="E0_0" slope="0.00"/>
    </timestep>
    <timestep time="5.00">
        <vehicle id="f_0.0" x="42.35" y="108.80" angle="54.76" type="DEFAULT_VEHTYPE" speed="9.42" pos="33.00" lane="E0_0" slope="0.00"/>
        <vehicle id="f_0.1" x="23.59" y="95.55" angle="54.76" type="DEFAULT_VEHTYPE" speed="3.33" pos="10.03" lane="E0_0" slope="0.00"/>
    </timestep>
    <timestep time="6.00">
        <vehicle id="f_0.0" x="51.75" y="115.44" angle="54.76" type="DEFAULT_VEHTYPE" speed="11.50" pos="44.50" lane="E0_0" slope="0.00"/>
        <vehicle id="f_0.1" x="28.08" y="98.72" angle="54.76" type="DEFAULT_VEHTYPE" speed="5.50" pos="15.52" lane="E0_0" slope="0.00"/>
        <vehicle id="f_0.2" x="19.57" y="92.70" angle="54.76" type="DEFAULT_VEHTYPE" speed="0.00" pos="5.10" lane="E0_0" slope="0.00"/>
    </timestep>
    <timestep time="7.00">
        <vehicle id="f_0.0" x="62.75" y="123.22" angle="54.76" type="DEFAULT_VEHTYPE" speed="13.47" pos="57.98" lane="E0_0" slope="0.00"/>
        <vehicle id="f_0.1" x="34.14" y="103.00" angle="54.76" type="DEFAULT_VEHTYPE" speed="7.42" pos="22.94" lane="E0_0" slope="0.00"/>
        <vehicle id="f_0.2" x="21.18" y="93.85" angle="54.76" type="DEFAULT_VEHTYPE" speed="1.98" pos="7.08" lane="E0_0" slope="0.00"/>
    </timestep>
    <timestep time="8.00">
        <vehicle id="f_0.0" x="73.80" y="131.02" angle="54.76" type="DEFAULT_VEHTYPE" speed="13.53" pos="71.50" lane="E0_0" slope="0.00"/>
        <vehicle id="f_0.1" x="41.28" y="108.05" angle="54.76" type="DEFAULT_VEHTYPE" speed="8.75" pos="31.69" lane="E0_0" slope="0.00"/>
        <vehicle id="f_0.2" x="24.33" y="96.07" angle="54.76" type="DEFAULT_VEHTYPE" speed="3.85" pos="10.94" lane="E0_0" slope="0.00"/>
    </timestep>
    <timestep time="9.00">
        <vehicle id="f_0.0" x="84.78" y="138.78" angle="54.76" type="DEFAULT_VEHTYPE" speed="13.45" pos="84.96" lane="E0_0" slope="0.00"/>
        <vehicle id="f_0.1" x="49.98" y="114.19" angle="54.76" type="DEFAULT_VEHTYPE" speed="10.65" pos="42.34" lane="E0_0" slope="0.00"/>
        <vehicle id="f_0.2" x="29.22" y="99.52" angle="54.76" type="DEFAULT_VEHTYPE" speed="5.98" pos="16.92" lane="E0_0" slope="0.00"/>
        <vehicle id="f_0.3" x="19.57" y="92.70" angle="54.76" type="DEFAULT_VEHTYPE" speed="0.00" pos="5.10" lane="E0_0" slope="0.00"/>
    </timestep>
    <timestep time="10.00">
        <vehicle id="f_0.0" x="96.06" y="146.75" angle="54.76" type="DEFAULT_VEHTYPE" speed="13.81" pos="98.76" lane="E0_0" slope="0.00"/>
        <vehicle id="f_0.1" x="60.53" y="121.65" angle="54.76" type="DEFAULT_VEHTYPE" speed="12.91" pos="55.26" lane="E0_0" slope="0.00"/>
        <vehicle id="f_0.2" x="35.78" y="104.16" angle="54.76" type="DEFAULT_VEHTYPE" speed="8.04" pos="24.96" lane="E0_0" slope="0.00"/>
        <vehicle id="f_0.3" x="21.00" y="93.72" angle="54.76" type="DEFAULT_VEHTYPE" speed="1.76" pos="6.86" lane="E0_0" slope="0.00"/>
    </timestep>
    <timestep time="11.00">
        <vehicle id="f_0.0" x="107.06" y="154.53" angle="54.76" type="DEFAULT_VEHTYPE" speed="13.47" pos="112.24" lane="E0_0" slope="0.00"/>
        <vehicle id="f_0.1" x="71.11" y="129.12" angle="54.76" type="DEFAULT_VEHTYPE" speed="12.95" pos="68.21" lane="E0_0" slope="0.00"/>
        <vehicle id="f_0.2" x="43.71" y="109.76" angle="54.76" type="DEFAULT_VEHTYPE" speed="9.70" pos="34.66" lane="E0_0" slope="0.00"/>
        <vehicle id="f_0.3" x="24.56" y="96.23" angle="54.76" type="DEFAULT_VEHTYPE" speed="4.36" pos="11.22" lane="E0_0" slope="0.00"/>
    </timestep>
    <timestep time="12.00">
        <vehicle id="f_0.0" x="118.63" y="162.70" angle="54.76" type="DEFAULT_VEHTYPE" speed="14.16" pos="126.39" lane="E0_0" slope="0.00"/>
        <vehicle id="f_0.1" x="81.70" y="136.60" angle="54.76" type="DEFAULT_VEHTYPE" speed="12.97" pos="81.18" lane="E0_0" slope="0.00"/>
        <vehicle id="f_0.2" x="53.42" y="116.63" angle="54.76" type="DEFAULT_VEHTYPE" speed="11.90" pos="46.56" lane="E0_0" slope="0.00"/>
        <vehicle id="f_0.3" x="29.43" y="99.67" angle="54.76" type="DEFAULT_VEHTYPE" speed="5.95" pos="17.17" lane="E0_0" slope="0.00"/>
        <vehicle id="f_0.4" x="19.57" y="92.70" angle="54.76" type="DEFAULT_VEHTYPE" speed="0.00" pos="5.10" lane="E0_0" slope="0.00"/>
    </timestep>
    <timestep time="13.00">
        <vehicle id="f_0.0" x="130.36" y="170.99" angle="54.76" type="DEFAULT_VEHTYPE" speed="14.37" pos="140.76" lane="E0_0" slope="0.00"/>
        <vehicle id="f_0.1" x="91.34" y="143.42" angle="54.76" type="DEFAULT_VEHTYPE" speed="11.80" pos="92.98" lane="E0_0" slope="0.00"/>
        <vehicle id="f_0.2" x="64.73" y="124.62" angle="54.76" type="DEFAULT_VEHTYPE" speed="13.85" pos="60.41" lane="E0_0" slope="0.00"/>
        <vehicle id="f_0.3" x="35.79" y="104.17" angle="54.76" type="DEFAULT_VEHTYPE" speed="7.80" pos="24.97" lane="E0_0" slope="0.00"/>
        <vehicle id="f_0.4" x="21.62" y="94.15" angle="54.76" type="DEFAULT_VEHTYPE" speed="2.51" pos="7.61" lane="E0_0" slope="0.00"/>
    </timestep>
    <timestep time="14.00">
        <vehicle id="f_0.0" x="141.66" y="178.97" angle="54.76" type="DEFAULT_VEHTYPE" speed="13.84" pos="154.60" lane="E0_0" slope="0.00"/>
        <vehicle id="f_0.1" x="101.92" y="150.90" angle="54.76" type="DEFAULT_VEHTYPE" speed="12.96" pos="105.94" lane="E0_0" slope="0.00"/>
        <vehicle id="f_0.2" x="75.58" y="132.28" angle="54.76" type="DEFAULT_VEHTYPE" speed="13.29" pos="73.69" lane="E0_0" slope="0.00"/>
        <vehicle id="f_0.3" x="43.89" y="109.89" angle="54.76" type="DEFAULT_VEHTYPE" speed="9.91" pos="34.88" lane="E0_0" slope="0.00"/>
        <vehicle id="f_0.4" x="24.75" y="96.36" angle="54.76" type="DEFAULT_VEHTYPE" speed="3.83" pos="11.45" lane="E0_0" slope="0.00"/>
    </timestep>
    <timestep time="15.00">
        <vehicle id="f_0.0" x="153.34" y="187.22" angle="54.76" type="DEFAULT_VEHTYPE" speed="14.30" pos="168.90" lane="E0_0" slope="0.00"/>
        <vehicle id="f_0.1" x="112.30" y="158.23" angle="54.76" type="DEFAULT_VEHTYPE" speed="12.70" pos="118.65" lane="E0_0" slope="0.00"/>
        <vehicle id="f_0.2" x="86.74" y="140.16" angle="54.76" type="DEFAULT_VEHTYPE" speed="13.66" pos="87.35" lane="E0_0" slope="0.00"/>
        <vehicle id="f_0.3" x="53.62" y="116.77" angle="54.76" type="DEFAULT_VEHTYPE" speed="11.92" pos="46.80" lane="E0_0" slope="0.00"/>
        <vehicle id="f_0.4" x="29.66" y="99.84" angle="54.76" type="DEFAULT_VEHTYPE" speed="6.02" pos="17.47" lane="E0_0" slope="0.00"/>
        <vehicle id="f_0.5" x="19.57" y="92.70" angle="54.76" type="DEFAULT_VEHTYPE" speed="0.00" pos="5.10" lane="E0_0" slope="0.00"/>
    </timestep>
    <timestep time="16.00">
        <vehicle id="f_0.0" x="165.02" y="195.48" angle="54.76" type="DEFAULT_VEHTYPE" speed="14.30" pos="183.20" lane="E0_0" slope="0.00"/>
        <vehicle id="f_0.1" x="122.55" y="165.47" angle="54.76" type="DEFAULT_VEHTYPE" speed="12.55" pos="131.20" lane="E0_0" slope="0.00"/>
        <vehicle id="f_0.2" x="97.25" y="147.59" angle="54.76" type="DEFAULT_VEHTYPE" speed="12.87" pos="100.22" lane="E0_0" slope="0.00"/>
        <vehicle id="f_0.3" x="64.70" y="124.60" angle="54.76" type="DEFAULT_VEHTYPE" speed="13.57" pos="60.37" lane="E0_0" slope="0.00"/>
        <vehicle id="f_0.4" x="36.02" y="104.33" angle="54.76" type="DEFAULT_VEHTYPE" speed="7.78" pos="25.25" lane="E0_0" slope="0.00"/>
        <vehicle id="f_0.5" x="21.00" y="93.72" angle="54.76" type="DEFAULT_VEHTYPE" speed="1.76" pos="6.86" lane="E0_0" slope="0.00"/>
    </timestep>
    <timestep time="17.00">
        <vehicle id="f_0.0" x="176.61" y="203.67" angle="54.76" type="DEFAULT_VEHTYPE" speed="14.19" pos="197.39" lane="E0_0" slope="0.00"/>
        <vehicle id="f_0.1" x="132.21" y="172.30" angle="54.76" type="DEFAULT_VEHTYPE" speed="11.83" pos="143.03" lane="E0_0" slope="0.00"/>
        <vehicle id="f_0.2" x="108.68" y="155.67" angle="54.76" type="DEFAULT_VEHTYPE" speed="14.00" pos="114.22" lane="E0_0" slope="0.00"/>
        <vehicle id="f_0.3" x="76.23" y="132.74" angle="54.76" type="DEFAULT_VEHTYPE" speed="14.11" pos="74.48" lane="E0_0" slope="0.00"/>
        <vehicle id="f_0.4" x="44.10" y="110.04" angle="54.76" type="DEFAULT_VEHTYPE" speed="9.90" pos="35.15" lane="E0_0" slope="0.00"/>
        <vehicle id="f_0.5" x="23.58" y="95.54" angle="54.76" type="DEFAULT_VEHTYPE" speed="3.15" pos="10.01" lane="E0_0" slope="0.00"/>
    </timestep>
    <timestep time="18.00">
        <vehicle id="f_0.0" x="184.56" y="209.29" angle="54.76" type="DEFAULT_VEHTYPE" speed="9.74" pos="207.13" lane="E0_0" slope="0.00"/>
        <vehicle id="f_0.1" x="142.70" y="179.71" angle="54.76" type="DEFAULT_VEHTYPE" speed="12.84" pos="155.87" lane="E0_0" slope="0.00"/>
        <vehicle id="f_0.2" x="119.33" y="163.20" angle="54.76" type="DEFAULT_VEHTYPE" speed="13.04" pos="127.26" lane="E0_0" slope="0.00"/>
        <vehicle id="f_0.3" x="87.59" y="140.77" angle="54.76" type="DEFAULT_VEHTYPE" speed="13.91" pos="88.39" lane="E0_0" slope="0.00"/>
        <vehicle id="f_0.4" x="53.47" y="116.66" angle="54.76" type="DEFAULT_VEHTYPE" speed="11.47" pos="46.62" lane="E0_0" slope="0.00"/>
        <vehicle id="f_0.5" x="27.55" y="98.34" angle="54.76" type="DEFAULT_VEHTYPE" speed="4.86" pos="14.87" lane="E0_0" slope="0.00"/>
        <vehicle id="f_0.6" x="19.57" y="92.70" angle="54.76" type="DEFAULT_VEHTYPE" speed="0.00" pos="5.10" lane="E0_0" slope="0.00"/>
    </timestep>
    <timestep time="19.00">
        <vehicle id="f_0.0" x="188.84" y="212.31" angle="54.76" type="DEFAULT_VEHTYPE" speed="5.24" pos="212.37" lane="E0_0" slope="0.00"/>
        <vehicle id="f_0.1" x="153.25" y="187.16" angle="54.76" type="DEFAULT_VEHTYPE" speed="12.92" pos="168.79" lane="E0_0" slope="0.00"/>
        <vehicle id="f_0.2" x="130.20" y="170.87" angle="54.76" type="DEFAULT_VEHTYPE" speed="13.30" pos="140.56" lane="E0_0" slope="0.00"/>
        <vehicle id="f_0.3" x="99.00" y="148.83" angle="54.76" type="DEFAULT_VEHTYPE" speed="13.97" pos="102.37" lane="E0_0" slope="0.00"/>
        <vehicle id="f_0.4" x="64.45" y="124.41" angle="54.76" type="DEFAULT_VEHTYPE" speed="13.43" pos="60.05" lane="E0_0" slope="0.00"/>
        <vehicle id="f_0.5" x="32.74" y="102.01" angle="54.76" type="DEFAULT_VEHTYPE" speed="6.36" pos="21.23" lane="E0_0" slope="0.00"/>
        <vehicle id="f_0.6" x="20.99" y="93.71" angle="54.76" type="DEFAULT_VEHTYPE" speed="1.74" pos="6.84" lane="E0_0" slope="0.00"/>
    </timestep>
    <timestep time="20.00">
        <vehicle id="f_0.0" x="191.54" y="211.97" angle="79.51" type="DEFAULT_VEHTYPE" speed="3.03" pos="0.77" lane="E1_0" slope="0.00"/>
        <vehicle id="f_0.1" x="162.84" y="193.94" angle="54.76" type="DEFAULT_VEHTYPE" speed="11.75" pos="180.53" lane="E0_0" slope="0.00"/>
        <vehicle id="f_0.2" x="141.27" y="178.70" angle="54.76" type="DEFAULT_VEHTYPE" speed="13.55" pos="154.12" lane="E0_0" slope="0.00"/>
        <vehicle id="f_0.3" x="110.75" y="157.13" angle="54.76" type="DEFAULT_VEHTYPE" speed="14.38" pos="116.75" lane="E0_0" slope="0.00"/>
        <vehicle id="f_0.4" x="76.04" y="132.61" angle="54.76" type="DEFAULT_VEHTYPE" speed="14.20" pos="74.25" lane="E0_0" slope="0.00"/>
        <vehicle id="f_0.5" x="39.68" y="106.92" angle="54.76" type="DEFAULT_VEHTYPE" speed="8.51" pos="29.74" lane="E0_0" slope="0.00"/>
        <vehicle id="f_0.6" x="23.81" y="95.70" angle="54.76" type="DEFAULT_VEHTYPE" speed="3.46" pos="10.30" lane="E0_0" slope="0.00"/>
    </timestep>
    <timestep time="21.00">
        <vehicle id="f_0.0" x="195.87" y="208.78" angle="126.41" type="DEFAULT_VEHTYPE" speed="5.37" pos="6.15" lane="E1_0" slope="0.00"/>
        <vehicle id="f_0.1" x="172.99" y="201.11" angle="54.76" type="DEFAULT_VEHTYPE" speed="12.43" pos="192.96" lane="E0_0" slope="0.00"/>
        <vehicle id="f_0.2" x="152.20" y="186.42" angle="54.76" type="DEFAULT_VEHTYPE" speed="13.39" pos="167.51" lane="E0_0" slope="0.00"/>
        <vehicle id="f_0.3" x="122.13" y="165.17" angle="54.76" type="DEFAULT_VEHTYPE" speed="13.93" pos="130.68" lane="E0_0" slope="0.00"/>
        <vehicle id="f_0.4" x="87.54" y="140.73" angle="54.76" type="DEFAULT_VEHTYPE" speed="14.08" pos="88.33" lane="E0_0" slope="0.00"/>
        <vehicle id="f_0.5" x="48.15" y="112.90" angle="54.76" type="DEFAULT_VEHTYPE" speed="10.36" pos="40.10" lane="E0_0" slope="0.00"/>
        <vehicle id="f_0.6" x="28.03" y="98.69" angle="54.76" type="DEFAULT_VEHTYPE" speed="5.17" pos="15.47" lane="E0_0" slope="0.00"/>
        <vehicle id="f_0.7" x="19.57" y="92.70" angle="54.76" type="DEFAULT_VEHTYPE" speed="0.00" pos="5.10" lane="E0_0" slope="0.00"/>
    </timestep>
    <timestep time="22.00">
        <vehicle id="f_0.0" x="201.35" y="204.74" angle="126.41" type="DEFAULT_VEHTYPE" speed="6.82" pos="12.96" lane="E1_0" slope="0.00"/>
        <vehicle id="f_0.1" x="182.18" y="207.60" angle="54.76" type="DEFAULT_VEHTYPE" speed="11.25" pos="204.21" lane="E0_0" slope="0.00"/>
        <vehicle id="f_0.2" x="163.46" y="194.38" angle="54.76" type="DEFAULT_VEHTYPE" speed="13.79" pos="181.29" lane="E0_0" slope="0.00"/>
        <vehicle id="f_0.3" x="133.71" y="173.35" angle="54.76" type="DEFAULT_VEHTYPE" speed="14.18" pos="144.86" lane="E0_0" slope="0.00"/>
        <vehicle id="f_0.4" x="98.40" y="148.40" angle="54.76" type="DEFAULT_VEHTYPE" speed="13.30" pos="101.63" lane="E0_0" slope="0.00"/>
        <vehicle id="f_0.5" x="56.63" y="118.89" angle="54.76" type="DEFAULT_VEHTYPE" speed="10.38" pos="50.48" lane="E0_0" slope="0.00"/>
        <vehicle id="f_0.6" x="33.46" y="102.52" angle="54.76" type="DEFAULT_VEHTYPE" speed="6.64" pos="22.11" lane="E0_0" slope="0.00"/>
        <vehicle id="f_0.7" x="21.12" y="93.80" angle="54.76" type="DEFAULT_VEHTYPE" speed="1.91" pos="7.01" lane="E0_0" slope="0.00"/>
    </timestep>
    <timestep time="23.00">
        <vehicle id="f_0.0" x="208.81" y="199.24" angle="126.41" type="DEFAULT_VEHTYPE" speed="9.27" pos="22.23" lane="E1_0" slope="0.00"/>
        <vehicle id="f_0.1" x="187.88" y="211.63" angle="54.76" type="DEFAULT_VEHTYPE" speed="6.98" pos="211.20" lane="E0_0" slope="0.00"/>
        <vehicle id="f_0.2" x="172.75" y="200.94" angle="54.76" type="DEFAULT_VEHTYPE" speed="11.37" pos="192.67" lane="E0_0" slope="0.00"/>
        <vehicle id="f_0.3" x="145.02" y="181.35" angle="54.76" type="DEFAULT_VEHTYPE" speed="13.85" pos="158.71" lane="E0_0" slope="0.00"/>
        <vehicle id="f_0.4" x="109.18" y="156.02" angle="54.76" type="DEFAULT_VEHTYPE" speed="13.20" pos="114.82" lane="E0_0" slope="0.00"/>
        <vehicle id="f_0.5" x="65.71" y="125.31" angle="54.76" type="DEFAULT_VEHTYPE" speed="11.13" pos="61.61" lane="E0_0" slope="0.00"/>
        <vehicle id="f_0.6" x="40.14" y="107.24" angle="54.76" type="DEFAULT_VEHTYPE" speed="8.18" pos="30.29" lane="E0_0" slope="0.00"/>
        <vehicle id="f_0.7" x="24.39" y="96.11" angle="54.76" type="DEFAULT_VEHTYPE" speed="4.00" pos="11.01" lane="E0_0" slope="0.00"/>
    </timestep>
    <timestep time="24.00">
        <vehicle id="f_0.0" x="217.77" y="192.63" angle="126.41" type="DEFAULT_VEHTYPE" speed="11.13" pos="33.36" lane="E1_0" slope="0.00"/>
        <vehicle id="f_0.1" x="190.57" y="212.62" angle="63.66" type="DEFAULT_VEHTYPE" speed="3.04" pos="1.62" lane=":2_0_0" slope="0.00"/>
        <vehicle id="f_0.2" x="179.07" y="205.40" angle="54.76" type="DEFAULT_VEHTYPE" speed="7.73" pos="200.40" lane="E0_0" slope="0.00"/>
        <vehicle id="f_0.3" x="157.24" y="189.98" angle="54.76" type="DEFAULT_VEHTYPE" speed="14.96" pos="173.67" lane="E0_0" slope="0.00"/>
        <vehicle id="f_0.4" x="120.05" y="163.70" angle="54.76" type="DEFAULT_VEHTYPE" speed="13.31" pos="128.13" lane="E0_0" slope="0.00"/>
        <vehicle id="f_0.5" x="74.44" y="131.47" angle="54.76" type="DEFAULT_VEHTYPE" speed="10.68" pos="72.29" lane="E0_0" slope="0.00"/>
        <vehicle id="f_0.6" x="48.31" y="113.02" angle="54.76" type="DEFAULT_VEHTYPE" speed="10.01" pos="40.30" lane="E0_0" slope="0.00"/>
        <vehicle id="f_0.7" x="28.89" y="99.29" angle="54.76" type="DEFAULT_VEHTYPE" speed="5.51" pos="16.52" lane="E0_0" slope="0.00"/>
        <vehicle id="f_0.8" x="19.57" y="92.70" angle="54.76" type="DEFAULT_VEHTYPE" speed="0.00" pos="5.10" lane="E0_0" slope="0.00"/>
    </timestep>
    <timestep time="25.00">
        <vehicle id="f_0.0" x="228.58" y="184.66" angle="126.41" type="DEFAULT_VEHTYPE" speed="13.43" pos="46.79" lane="E1_0" slope="0.00"/>
        <vehicle id="f_0.1" x="192.65" y="211.15" angle="100.77" type="DEFAULT_VEHTYPE" speed="2.55" pos="2.15" lane="E1_0" slope="0.00"/>
        <vehicle id="f_0.2" x="183.40" y="208.46" angle="54.76" type="DEFAULT_VEHTYPE" speed="5.31" pos="205.70" lane="E0_0" slope="0.00"/>
        <vehicle id="f_0.3" x="166.74" y="196.69" angle="54.76" type="DEFAULT_VEHTYPE" speed="11.64" pos="185.31" lane="E0_0" slope="0.00"/>
        <vehicle id="f_0.4" x="131.66" y="171.90" angle="54.76" type="DEFAULT_VEHTYPE" speed="14.21" pos="142.35" lane="E0_0" slope="0.00"/>
        <vehicle id="f_0.5" x="83.53" y="137.90" angle="54.76" type="DEFAULT_VEHTYPE" speed="11.13" pos="83.41" lane="E0_0" slope="0.00"/>
        <vehicle id="f_0.6" x="58.26" y="120.05" angle="54.76" type="DEFAULT_VEHTYPE" speed="12.18" pos="52.48" lane="E0_0" slope="0.00"/>
        <vehicle id="f_0.7" x="35.40" y="103.89" angle="54.76" type="DEFAULT_VEHTYPE" speed="7.97" pos="24.49" lane="E0_0" slope="0.00"/>
        <vehicle id="f_0.8" x="21.54" y="94.10" angle="54.76" type="DEFAULT_VEHTYPE" speed="2.42" pos="7.52" lane="E0_0" slope="0.00"/>
    </timestep>
    <timestep time="26.00">
        <vehicle id="f_0.0" x="240.02" y="176.22" angle="126.41" type="DEFAULT_VEHTYPE" speed="14.22" pos="61.01" lane="E1_0" slope="0.00"/>
        <vehicle id="f_0.1" x="195.86" y="208.79" angle="126.41" type="DEFAULT_VEHTYPE" speed="3.98" pos="6.13" lane="E1_0" slope="0.00"/>
        <vehicle id="f_0.2" x="186.19" y="210.44" angle="54.76" type="DEFAULT_VEHTYPE" speed="3.42" pos="209.13" lane="E0_0" slope="0.00"/>
        <vehicle id="f_0.3" x="173.36" y="201.37" angle="54.76" type="DEFAULT_VEHTYPE" speed="8.11" pos="193.42" lane="E0_0" slope="0.00"/>
        <vehicle id="f_0.4" x="142.58" y="179.62" angle="54.76" type="DEFAULT_VEHTYPE" speed="13.38" pos="155.72" lane="E0_0" slope="0.00"/>
        <vehicle id="f_0.5" x="92.76" y="144.42" angle="54.76" type="DEFAULT_VEHTYPE" speed="11.31" pos="94.72" lane="E0_0" slope="0.00"/>
        <vehicle id="f_0.6" x="69.36" y="127.88" angle="54.76" type="DEFAULT_VEHTYPE" speed="13.58" pos="66.07" lane="E0_0" slope="0.00"/>
        <vehicle id="f_0.7" x="43.96" y="109.94" angle="54.76" type="DEFAULT_VEHTYPE" speed="10.48" pos="34.97" lane="E0_0" slope="0.00"/>
        <vehicle id="f_0.8" x="25.06" y="96.59" angle="54.76" type="DEFAULT_VEHTYPE" speed="4.32" pos="11.83" lane="E0_0" slope="0.00"/>
    </timestep>
    <timestep time="27.00">
        <vehicle id="f_0.0" x="251.20" y="167.98" angle="126.41" type="DEFAULT_VEHTYPE" speed="13.89" pos="74.90" lane="E1_0" slope="0.00"/>
        <vehicle id="f_0.1" x="200.25" y="205.55" angle="126.41" type="DEFAULT_VEHTYPE" speed="5.46" pos="11.59" lane="E1_0" slope="0.00"/>
        <vehicle id="f_0.2" x="189.35" y="212.62" angle="55.27" type="DEFAULT_VEHTYPE" speed="3.84" pos="0.36" lane=":2_0_0" slope="0.00"/>
        <vehicle id="f_0.3" x="177.77" y="204.48" angle="54.76" type="DEFAULT_VEHTYPE" speed="5.39" pos="198.81" lane="E0_0" slope="0.00"/>
        <vehicle id="f_0.4" x="154.26" y="187.88" angle="54.76" type="DEFAULT_VEHTYPE" speed="14.30" pos="170.03" lane="E0_0" slope="0.00"/>
        <vehicle id="f_0.5" x="101.47" y="150.58" angle="54.76" type="DEFAULT_VEHTYPE" speed="10.67" pos="105.39" lane="E0_0" slope="0.00"/>
        <vehicle id="f_0.6" x="80.71" y="135.91" angle="54.76" type="DEFAULT_VEHTYPE" speed="13.90" pos="79.97" lane="E0_0" slope="0.00"/>
        <vehicle id="f_0.7" x="53.49" y="116.67" angle="54.76" type="DEFAULT_VEHTYPE" speed="11.66" pos="46.64" lane="E0_0" slope="0.00"/>
        <vehicle id="f_0.8" x="29.96" y="100.05" angle="54.76" type="DEFAULT_VEHTYPE" speed="5.99" pos="17.83" lane="E0_0" slope="0.00"/>
        <vehicle id="f_0.9" x="19.57" y="92.70" angle="54.76" type="DEFAULT_VEHTYPE" speed="0.00" pos="5.10" lane="E0_0" slope="0.00"/>
    </timestep>
    <timestep time="28.00">
        <vehicle id="f_0.0" x="262.15" y="159.90" angle="126.41" type="DEFAULT_VEHTYPE" speed="13.61" pos="88.51" lane="E1_0" slope="0.00"/>
        <vehicle id="f_0.1" x="205.89" y="201.39" angle="126.41" type="DEFAULT_VEHTYPE" speed="7.01" pos="18.61" lane="E1_0" slope="0.00"/>
        <vehicle id="f_0.2" x="192.05" y="211.60" angle="89.19" type="DEFAULT_VEHTYPE" speed="3.06" pos="1.40" lane="E1_0" slope="0.00"/>
        <vehicle id="f_0.3" x="182.04" y="207.50" angle="54.76" type="DEFAULT_VEHTYPE" speed="5.23" pos="204.03" lane="E0_0" slope="0.00"/>
        <vehicle id="f_0.4" x="163.63" y="194.50" angle="54.76" type="DEFAULT_VEHTYPE" speed="11.47" pos="181.50" lane="E0_0" slope="0.00"/>
        <vehicle id="f_0.5" x="109.93" y="156.56" angle="54.76" type="DEFAULT_VEHTYPE" speed="10.36" pos="115.75" lane="E0_0" slope="0.00"/>
        <vehicle id="f_0.6" x="90.79" y="143.03" angle="54.76" type="DEFAULT_VEHTYPE" speed="12.34" pos="92.31" lane="E0_0" slope="0.00"/>
        <vehicle id="f_0.7" x="63.39" y="123.67" angle="54.76" type="DEFAULT_VEHTYPE" speed="12.12" pos="58.75" lane="E0_0" slope="0.00"/>
        <vehicle id="f_0.8" x="36.73" y="104.83" angle="54.76" type="DEFAULT_VEHTYPE" speed="8.29" pos="26.12" lane="E0_0" slope="0.00"/>
        <vehicle id="f_0.9" x="20.67" y="93.48" angle="54.76" type="DEFAULT_VEHTYPE" speed="1.35" pos="6.45" lane="E0_0" slope="0.00"/>
    </timestep>
    <timestep time="29.00">
        <vehicle id="f_0.0" x="273.84" y="151.28" angle="126.41" type="DEFAULT_VEHTYPE" speed="14.53" pos="103.04" lane="E1_0" slope="0.00"/>
        <vehicle id="f_0.1" x="213.27" y="195.94" angle="126.41" type="DEFAULT_VEHTYPE" speed="9.17" pos="27.78" lane="E1_0" slope="0.00"/>
        <vehicle id="f_0.2" x="196.15" y="208.57" angle="126.41" type="DEFAULT_VEHTYPE" speed="5.10" pos="6.50" lane="E1_0" slope="0.00"/>
        <vehicle id="f_0.3" x="184.83" y="209.47" angle="54.76" type="DEFAULT_VEHTYPE" speed="3.42" pos="207.45" lane="E0_0" slope="0.00"/>
        <vehicle id="f_0.4" x="171.03" y="199.73" angle="54.76" type="DEFAULT_VEHTYPE" speed="9.06" pos="190.56" lane="E0_0" slope="0.00"/>
        <vehicle id="f_0.5" x="119.31" y="163.18" angle="54.76" type="DEFAULT_VEHTYPE" speed="11.47" pos="127.23" lane="E0_0" slope="0.00"/>
        <vehicle id="f_0.6" x="100.68" y="150.01" angle="54.76" type="DEFAULT_VEHTYPE" speed="12.11" pos="104.41" lane="E0_0" slope="0.00"/>
        <vehicle id="f_0.7" x="72.67" y="130.23" angle="54.76" type="DEFAULT_VEHTYPE" speed="11.37" pos="70.12" lane="E0_0" slope="0.00"/>
        <vehicle id="f_0.8" x="44.92" y="110.61" angle="54.76" type="DEFAULT_VEHTYPE" speed="10.02" pos="36.14" lane="E0_0" slope="0.00"/>
        <vehicle id="f_0.9" x="23.89" y="95.76" angle="54.76" type="DEFAULT_VEHTYPE" speed="3.94" pos="10.39" lane="E0_0" slope="0.00"/>
    </timestep>
    <timestep time="30.00">
        <vehicle id="f_0.0" x="285.03" y="143.03" angle="126.41" type="DEFAULT_VEHTYPE" speed="13.90" pos="116.93" lane="E1_0" slope="0.00"/>
        <vehicle id="f_0.1" x="222.71" y="188.99" angle="126.41" type="DEFAULT_VEHTYPE" speed="11.72" pos="39.50" lane="E1_0" slope="0.00"/>
        <vehicle id="f_0.10" x="19.57" y="92.70" angle="54.76" type="DEFAULT_VEHTYPE" speed="0.00" pos="5.10" lane="E0_0" slope="0.00"/>
        <vehicle id="f_0.2" x="201.54" y="204.60" angle="126.41" type="DEFAULT_VEHTYPE" speed="6.70" pos="13.20" lane="E1_0" slope="0.00"/>
        <vehicle id="f_0.3" x="188.50" y="212.07" angle="54.76" type="DEFAULT_VEHTYPE" speed="4.49" pos="211.94" lane="E0_0" slope="0.00"/>
        <vehicle id="f_0.4" x="176.16" y="203.35" angle="54.76" type="DEFAULT_VEHTYPE" speed="6.28" pos="196.84" lane="E0_0" slope="0.00"/>
        <vehicle id="f_0.5" x="128.34" y="169.56" angle="54.76" type="DEFAULT_VEHTYPE" speed="11.06" pos="138.29" lane="E0_0" slope="0.00"/>
        <vehicle id="f_0.6" x="111.07" y="157.36" angle="54.76" type="DEFAULT_VEHTYPE" speed="12.73" pos="117.14" lane="E0_0" slope="0.00"/>
        <vehicle id="f_0.7" x="82.61" y="137.25" angle="54.76" type="DEFAULT_VEHTYPE" speed="12.17" pos="82.30" lane="E0_0" slope="0.00"/>
        <vehicle id="f_0.8" x="55.04" y="117.77" angle="54.76" type="DEFAULT_VEHTYPE" speed="12.40" pos="48.54" lane="E0_0" slope="0.00"/>
        <vehicle id="f_0.9" x="29.05" y="99.41" angle="54.76" type="DEFAULT_VEHTYPE" speed="6.32" pos="16.71" lane="E0_0" slope="0.00"/>
    </timestep>
    <timestep time="31.00">
        <vehicle id="f_0.0" x="296.20" y="134.79" angle="126.41" type="DEFAULT_VEHTYPE" speed="13.89" pos="130.82" lane="E1_0" slope="0.00"/>
        <vehicle id="f_0.1" x="232.81" y="181.53" angle="126.41" type="DEFAULT_VEHTYPE" speed="12.56" pos="52.06" lane="E1_0" slope="0.00"/>
        <vehicle id="f_0.10" x="21.31" y="93.93" angle="54.76" type="DEFAULT_VEHTYPE" speed="2.13" pos="7.23" lane="E0_0" slope="0.00"/>
        <vehicle id="f_0.2" x="208.24" y="199.66" angle="126.41" type="DEFAULT_VEHTYPE" speed="8.32" pos="21.52" lane="E1_0" slope="0.00"/>
        <vehicle id="f_0.3" x="191.29" y="212.16" angle="74.95" type="DEFAULT_VEHTYPE" speed="3.15" pos="0.46" lane="E1_0" slope="0.00"/>
        <vehicle id="f_0.4" x="180.90" y="206.70" angle="54.76" type="DEFAULT_VEHTYPE" speed="5.80" pos="202.64" lane="E0_0" slope="0.00"/>
        <vehicle id="f_0.5" x="137.65" y="176.14" angle="54.76" type="DEFAULT_VEHTYPE" speed="11.39" pos="149.68" lane="E0_0" slope="0.00"/>
        <vehicle id="f_0.6" x="120.74" y="164.19" angle="54.76" type="DEFAULT_VEHTYPE" speed="11.84" pos="128.98" lane="E0_0" slope="0.00"/>
        <vehicle id="f_0.7" x="92.57" y="144.29" angle="54.76" type="DEFAULT_VEHTYPE" speed="12.20" pos="94.49" lane="E0_0" slope="0.00"/>
        <vehicle id="f_0.8" x="65.19" y="124.94" angle="54.76" type="DEFAULT_VEHTYPE" speed="12.43" pos="60.97" lane="E0_0" slope="0.00"/>
        <vehicle id="f_0.9" x="36.32" y="104.54" angle="54.76" type="DEFAULT_VEHTYPE" speed="8.90" pos="25.61" lane="E0_0" slope="0.00"/>
    </timestep>
    <timestep time="32.00">
        <vehicle id="f_0.0" x="307.54" y="126.43" angle="126.41" type="DEFAULT_VEHTYPE" speed="14.08" pos="144.90" lane="E1_0" slope="0.00"/>
        <vehicle id="f_0.1" x="242.28" y="174.55" angle="126.41" type="DEFAULT_VEHTYPE" speed="11.77" pos="63.82" lane="E1_0" slope="0.00"/>
        <vehicle id="f_0.10" x="24.40" y="96.12" angle="54.76" type="DEFAULT_VEHTYPE" speed="3.78" pos="11.02" lane="E0_0" slope="0.00"/>
        <vehicle id="f_0.2" x="216.08" y="193.87" angle="126.41" type="DEFAULT_VEHTYPE" speed="9.75" pos="31.27" lane="E1_0" slope="0.00"/>
        <vehicle id="f_0.3" x="195.11" y="209.34" angle="126.41" type="DEFAULT_VEHTYPE" speed="4.74" pos="5.20" lane="E1_0" slope="0.00"/>
        <vehicle id="f_0.4" x="184.08" y="208.94" angle="54.76" type="DEFAULT_VEHTYPE" speed="3.89" pos="206.53" lane="E0_0" slope="0.00"/>
        <vehicle id="f_0.5" x="146.44" y="182.35" angle="54.76" type="DEFAULT_VEHTYPE" speed="10.77" pos="160.45" lane="E0_0" slope="0.00"/>
        <vehicle id="f_0.6" x="130.12" y="170.82" angle="54.76" type="DEFAULT_VEHTYPE" speed="11.48" pos="140.46" lane="E0_0" slope="0.00"/>
        <vehicle id="f_0.7" x="101.86" y="150.85" angle="54.76" type="DEFAULT_VEHTYPE" speed="11.38" pos="105.87" lane="E0_0" slope="0.00"/>
        <vehicle id="f_0.8" x="75.53" y="132.24" angle="54.76" type="DEFAULT_VEHTYPE" speed="12.66" pos="73.62" lane="E0_0" slope="0.00"/>
        <vehicle id="f_0.9" x="45.34" y="110.91" angle="54.76" type="DEFAULT_VEHTYPE" speed="11.04" pos="36.65" lane="E0_0" slope="0.00"/>
    </timestep>
    <timestep time="33.00">